2
Lattice="2.80736 0.0 0.0 0.0 2.80736 0.0 0.0 0.0 2.80736" Properties=species:S:1:pos:R:3:initial_magmoms:R:1:forces:R:3 energy=-16.468388125185527 stresses="_JSON [-0.02614661037649108, -0.026146610376491207, -0.02614661039660816, -6.774069924277039e-17, -7.432660055803972e-17, -7.213130011961661e-17]" pbc="T T T"
Fe       0.00000000       0.00000000       0.00000000       2.30000000       0.00000000       0.00000000       0.00000000
Fe       1.40368000       1.40368000       1.40368000       2.30000000      -0.00000000      -0.00000000      -0.00000000
