2
Lattice="2.6035999999999997 0.0 0.0 0.0 2.6035999999999997 0.0 0.0 0.0 2.6035999999999997" Properties=species:S:1:pos:R:3:initial_magmoms:R:1:forces:R:3 energy=-15.385766730320395 stresses="_JSON [-0.5424873994747232, -0.5424883349096964, -0.5424876465724211, -2.3350888595969398e-07, 2.4992816518871213e-06, 2.7177012893705317e-07]" pbc="T T T"
Fe       0.00045698      -0.00012720       0.00059587       2.30000000       0.01154264      -0.00107843      -0.00991760
Fe       1.30320119       1.30158458       1.30158459       2.30000000      -0.01154264       0.00107843       0.00991760
2
Lattice="2.6035999999999997 0.0 0.0 0.0 2.6035999999999997 0.0 0.0 0.0 2.6035999999999997" Properties=species:S:1:pos:R:3:initial_magmoms:R:1:forces:R:3 energy=-15.385772219073747 stresses="_JSON [-0.542487094163941, -0.5424874902621908, -0.5424871988487853, -9.887794769041626e-08, 1.0583055723384506e-06, 1.1507943208105559e-07]" pbc="T T T"
Fe       0.00062187      -0.00014261       0.00045419       2.30000000       0.00751106      -0.00070176      -0.00645361
Fe       1.30303629       1.30159999       1.30172627       2.30000000      -0.00751106       0.00070176       0.00645361
2
Lattice="2.6035999999999997 0.0 0.0 0.0 2.6035999999999997 0.0 0.0 0.0 2.6035999999999997" Properties=species:S:1:pos:R:3:initial_magmoms:R:1:forces:R:3 energy=-15.385766730320398 stresses="_JSON [-0.5424873994747222, -0.5424883349096958, -0.5424876465724208, -2.3350888559798833e-07, 2.499281651896557e-06, 2.717701297988562e-07]" pbc="T T T"
Fe       0.00045698      -0.00012720       0.00059587       2.30000000       0.01154264      -0.00107843      -0.00991760
Fe       1.30320119       1.30158458       1.30158459       2.30000000      -0.01154264       0.00107843       0.00991760
2
Lattice="2.6035999999999997 0.0 0.0 0.0 2.6035999999999997 0.0 0.0 0.0 2.6035999999999997" Properties=species:S:1:pos:R:3:initial_magmoms:R:1:forces:R:3 energy=-15.385772219073747 stresses="_JSON [-0.5424870941639409, -0.542487490262192, -0.5424871988487856, -9.887794774074053e-08, 1.0583055723132885e-06, 1.1507943257486241e-07]" pbc="T T T"
Fe       0.00062187      -0.00014261       0.00045419       2.30000000       0.00751106      -0.00070176      -0.00645361
Fe       1.30303629       1.30159999       1.30172627       2.30000000      -0.00751106       0.00070176       0.00645361
2
Lattice="2.6035999999999997 0.0 0.0 0.0 2.6035999999999997 0.0 0.0 0.0 2.6035999999999997" Properties=species:S:1:pos:R:3:initial_magmoms:R:1:forces:R:3 energy=-15.385766730320395 stresses="_JSON [-0.5424873994747228, -0.5424883349096961, -0.5424876465724211, -2.3350888592195077e-07, 2.499281651717277e-06, 2.71770129336502e-07]" pbc="T T T"
Fe       0.00045698      -0.00012720       0.00059587       2.30000000       0.01154264      -0.00107843      -0.00991760
Fe       1.30320119       1.30158458       1.30158459       2.30000000      -0.01154264       0.00107843       0.00991760
2
Lattice="2.6035999999999997 0.0 0.0 0.0 2.6035999999999997 0.0 0.0 0.0 2.6035999999999997" Properties=species:S:1:pos:R:3:initial_magmoms:R:1:forces:R:3 energy=-15.385772219073747 stresses="_JSON [-0.5424870941639404, -0.5424874902621906, -0.5424871988487848, -9.887794759605828e-08, 1.0583055721340082e-06, 1.1507943264720354e-07]" pbc="T T T"
Fe       0.00062187      -0.00014261       0.00045419       2.30000000       0.00751106      -0.00070176      -0.00645361
Fe       1.30303629       1.30159999       1.30172627       2.30000000      -0.00751106       0.00070176       0.00645361
2
Lattice="2.6035999999999997 0.0 0.0 0.0 2.6035999999999997 0.0 0.0 0.0 2.6035999999999997" Properties=species:S:1:pos:R:3:initial_magmoms:R:1:forces:R:3 energy=-15.385766730320396 stresses="_JSON [-0.5424873994747232, -0.5424883349096968, -0.5424876465724209, -2.3350888586219072e-07, 2.4992816514310576e-06, 2.7177012951263694e-07]" pbc="T T T"
Fe       0.00045698      -0.00012720       0.00059587       2.30000000       0.01154264      -0.00107843      -0.00991760
Fe       1.30320119       1.30158458       1.30158459       2.30000000      -0.01154264       0.00107843       0.00991760
2
Lattice="2.6035999999999997 0.0 0.0 0.0 2.6035999999999997 0.0 0.0 0.0 2.6035999999999997" Properties=species:S:1:pos:R:3:initial_magmoms:R:1:forces:R:3 energy=-15.385772219073747 stresses="_JSON [-0.5424870941639416, -0.5424874902621913, -0.5424871988487855, -9.887794800494292e-08, 1.0583055724359539e-06, 1.1507943199927866e-07]" pbc="T T T"
Fe       0.00062187      -0.00014261       0.00045419       2.30000000       0.00751106      -0.00070176      -0.00645361
Fe       1.30303629       1.30159999       1.30172627       2.30000000      -0.00751106       0.00070176       0.00645361
2
Lattice="2.6035999999999997 0.0 0.0 0.0 2.6035999999999997 0.0 0.0 0.0 2.6035999999999997" Properties=species:S:1:pos:R:3:initial_magmoms:R:1:forces:R:3 energy=-15.385766730320398 stresses="_JSON [-0.5424873994747226, -0.5424883349096962, -0.5424876465724214, -2.335088864566461e-07, 2.4992816518179255e-06, 2.717701294969106e-07]" pbc="T T T"
Fe       0.00045698      -0.00012720       0.00059587       2.30000000       0.01154264      -0.00107843      -0.00991760
Fe       1.30320119       1.30158458       1.30158459       2.30000000      -0.01154264       0.00107843       0.00991760
2
Lattice="2.6035999999999997 0.0 0.0 0.0 2.6035999999999997 0.0 0.0 0.0 2.6035999999999997" Properties=species:S:1:pos:R:3:initial_magmoms:R:1:forces:R:3 energy=-15.385772219073749 stresses="_JSON [-0.5424870941639409, -0.5424874902621906, -0.542487198848785, -9.887794805526718e-08, 1.0583055719610187e-06, 1.1507943201185972e-07]" pbc="T T T"
Fe       0.00062187      -0.00014261       0.00045419       2.30000000       0.00751106      -0.00070176      -0.00645361
Fe       1.30303629       1.30159999       1.30172627       2.30000000      -0.00751106       0.00070176       0.00645361
2
Lattice="2.6035999999999997 0.0 0.0 0.0 2.6035999999999997 0.0 0.0 0.0 2.6035999999999997" Properties=species:S:1:pos:R:3:initial_magmoms:R:1:forces:R:3 energy=-15.385766730320398 stresses="_JSON [-0.5424873994747227, -0.5424883349096963, -0.5424876465724211, -2.3350888597227504e-07, 2.4992816518179255e-06, 2.717701293648094e-07]" pbc="T T T"
Fe       0.00045698      -0.00012720       0.00059587       2.30000000       0.01154264      -0.00107843      -0.00991760
Fe       1.30320119       1.30158458       1.30158459       2.30000000      -0.01154264       0.00107843       0.00991760
2
Lattice="2.6035999999999997 0.0 0.0 0.0 2.6035999999999997 0.0 0.0 0.0 2.6035999999999997" Properties=species:S:1:pos:R:3:initial_magmoms:R:1:forces:R:3 energy=-15.385772219073749 stresses="_JSON [-0.5424870941639407, -0.5424874902621915, -0.5424871988487857, -9.887794758976775e-08, 1.0583055720522314e-06, 1.150794323798559e-07]" pbc="T T T"
Fe       0.00062187      -0.00014261       0.00045419       2.30000000       0.00751106      -0.00070176      -0.00645361
Fe       1.30303629       1.30159999       1.30172627       2.30000000      -0.00751106       0.00070176       0.00645361
2
Lattice="2.6035999999999997 0.0 0.0 0.0 2.6035999999999997 0.0 0.0 0.0 2.6035999999999997" Properties=species:S:1:pos:R:3:initial_magmoms:R:1:forces:R:3 energy=-15.385766730320393 stresses="_JSON [-0.5424873994747228, -0.5424883349096965, -0.5424876465724218, -2.3350888604776145e-07, 2.499281651846233e-06, 2.7177012949062006e-07]" pbc="T T T"
Fe       0.00045698      -0.00012720       0.00059587       2.30000000       0.01154264      -0.00107843      -0.00991760
Fe       1.30320119       1.30158458       1.30158459       2.30000000      -0.01154264       0.00107843       0.00991760
2
Lattice="2.6035999999999997 0.0 0.0 0.0 2.6035999999999997 0.0 0.0 0.0 2.6035999999999997" Properties=species:S:1:pos:R:3:initial_magmoms:R:1:forces:R:3 energy=-15.385772219073747 stresses="_JSON [-0.5424870941639405, -0.5424874902621907, -0.5424871988487849, -9.887794791373019e-08, 1.0583055720648124e-06, 1.1507943250252129e-07]" pbc="T T T"
Fe       0.00062187      -0.00014261       0.00045419       2.30000000       0.00751106      -0.00070176      -0.00645361
Fe       1.30303629       1.30159999       1.30172627       2.30000000      -0.00751106       0.00070176       0.00645361
2
Lattice="2.6035999999999997 0.0 0.0 0.0 2.6035999999999997 0.0 0.0 0.0 2.6035999999999997" Properties=species:S:1:pos:R:3:initial_magmoms:R:1:forces:R:3 energy=-15.385766730320395 stresses="_JSON [-0.5424873994747228, -0.5424883349096964, -0.5424876465724214, -2.335088859565487e-07, 2.4992816519972055e-06, 2.717701296007044e-07]" pbc="T T T"
Fe       0.00045698      -0.00012720       0.00059587       2.30000000       0.01154264      -0.00107843      -0.00991760
Fe       1.30320119       1.30158458       1.30158459       2.30000000      -0.01154264       0.00107843       0.00991760
2
Lattice="2.6035999999999997 0.0 0.0 0.0 2.6035999999999997 0.0 0.0 0.0 2.6035999999999997" Properties=species:S:1:pos:R:3:initial_magmoms:R:1:forces:R:3 energy=-15.385772219073743 stresses="_JSON [-0.5424870941639415, -0.5424874902621909, -0.5424871988487854, -9.887794813075358e-08, 1.0583055722912715e-06, 1.150794324742139e-07]" pbc="T T T"
Fe       0.00062187      -0.00014261       0.00045419       2.30000000       0.00751106      -0.00070176      -0.00645361
Fe       1.30303629       1.30159999       1.30172627       2.30000000      -0.00751106       0.00070176       0.00645361
2
Lattice="2.6035999999999997 0.0 0.0 0.0 2.6035999999999997 0.0 0.0 0.0 2.6035999999999997" Properties=species:S:1:pos:R:3:initial_magmoms:R:1:forces:R:3 energy=-15.385766730320402 stresses="_JSON [-0.542487399474722, -0.5424883349096958, -0.5424876465724208, -2.3350888584331911e-07, 2.4992816519059928e-06, 2.7177012949376536e-07]" pbc="T T T"
Fe       0.00045698      -0.00012720       0.00059587       2.30000000       0.01154264      -0.00107843      -0.00991760
Fe       1.30320119       1.30158458       1.30158459       2.30000000      -0.01154264       0.00107843       0.00991760
2
Lattice="2.6035999999999997 0.0 0.0 0.0 2.6035999999999997 0.0 0.0 0.0 2.6035999999999997" Properties=species:S:1:pos:R:3:initial_magmoms:R:1:forces:R:3 energy=-15.385772219073747 stresses="_JSON [-0.5424870941639415, -0.5424874902621917, -0.5424871988487856, -9.887794782251746e-08, 1.0583055717282688e-06, 1.1507943216283252e-07]" pbc="T T T"
Fe       0.00062187      -0.00014261       0.00045419       2.30000000       0.00751106      -0.00070176      -0.00645361
Fe       1.30303629       1.30159999       1.30172627       2.30000000      -0.00751106       0.00070176       0.00645361
2
Lattice="2.6035999999999997 0.0 0.0 0.0 2.6035999999999997 0.0 0.0 0.0 2.6035999999999997" Properties=species:S:1:pos:R:3:initial_magmoms:R:1:forces:R:3 energy=-15.385766730320398 stresses="_JSON [-0.5424873994747234, -0.5424883349096968, -0.5424876465724222, -2.3350888602888985e-07, 2.499281652003496e-06, 2.717701297768393e-07]" pbc="T T T"
Fe       0.00045698      -0.00012720       0.00059587       2.30000000       0.01154264      -0.00107843      -0.00991760
Fe       1.30320119       1.30158458       1.30158459       2.30000000      -0.01154264       0.00107843       0.00991760
2
Lattice="2.6035999999999997 0.0 0.0 0.0 2.6035999999999997 0.0 0.0 0.0 2.6035999999999997" Properties=species:S:1:pos:R:3:initial_magmoms:R:1:forces:R:3 energy=-15.385772219073749 stresses="_JSON [-0.5424870941639416, -0.5424874902621917, -0.5424871988487862, -9.887794770299734e-08, 1.0583055721748968e-06, 1.1507943214710618e-07]" pbc="T T T"
Fe       0.00062187      -0.00014261       0.00045419       2.30000000       0.00751106      -0.00070176      -0.00645361
Fe       1.30303629       1.30159999       1.30172627       2.30000000      -0.00751106       0.00070176       0.00645361
2
Lattice="2.7168 0.0 0.0 0.0 2.7168 0.0 0.0 0.0 2.7168" Properties=species:S:1:pos:R:3:initial_magmoms:R:1:forces:R:3 energy=-16.244946772012153 stresses="_JSON [-0.20949420435268912, -0.20949529066783998, -0.2094944912435921, -4.217410096605334e-08, 4.51381502222674e-07, 4.9084060244020535e-08]" pbc="T T T"
Fe       0.00047685      -0.00013273       0.00062178       2.30000000       0.01082919      -0.00101178      -0.00930460
Fe       1.35986211       1.35817521       1.35817523       2.30000000      -0.01082919       0.00101178       0.00930460
2
Lattice="2.7168 0.0 0.0 0.0 2.7168 0.0 0.0 0.0 2.7168" Properties=species:S:1:pos:R:3:initial_magmoms:R:1:forces:R:3 energy=-16.244951706377577 stresses="_JSON [-0.2094945753833896, -0.20949508655327645, -0.20949471040359338, -1.984410462762221e-08, 2.123913945027363e-07, 2.3095536869124114e-08]" pbc="T T T"
Fe       0.00063155      -0.00014719       0.00048886       2.30000000       0.00742848      -0.00069405      -0.00638266
Fe       1.35970741       1.35818967       1.35830815       2.30000000      -0.00742848       0.00069405       0.00638266
2
Lattice="2.6035999999999997 0.0 0.0 0.0 2.6035999999999997 0.0 0.0 0.0 2.6035999999999997" Properties=species:S:1:pos:R:3:initial_magmoms:R:1:forces:R:3 energy=-15.385766730320395 stresses="_JSON [-0.5424873994747229, -0.5424883349096971, -0.5424876465724214, -2.3350888585590017e-07, 2.499281651802199e-06, 2.717701294686032e-07]" pbc="T T T"
Fe       0.00045698      -0.00012720       0.00059587       2.30000000       0.01154264      -0.00107843      -0.00991760
Fe       1.30320119       1.30158458       1.30158459       2.30000000      -0.01154264       0.00107843       0.00991760
2
Lattice="2.6035999999999997 0.0 0.0 0.0 2.6035999999999997 0.0 0.0 0.0 2.6035999999999997" Properties=species:S:1:pos:R:3:initial_magmoms:R:1:forces:R:3 energy=-15.385772219073747 stresses="_JSON [-0.5424870941639403, -0.5424874902621909, -0.5424871988487853, -9.887794785082486e-08, 1.0583055719610187e-06, 1.1507943233582216e-07]" pbc="T T T"
Fe       0.00062187      -0.00014261       0.00045419       2.30000000       0.00751106      -0.00070176      -0.00645361
Fe       1.30303629       1.30159999       1.30172627       2.30000000      -0.00751106       0.00070176       0.00645361
2
Lattice="2.6035999999999997 0.0 0.0 0.0 2.6035999999999997 0.0 0.0 0.0 2.6035999999999997" Properties=species:S:1:pos:R:3:initial_magmoms:R:1:forces:R:3 energy=-15.385766730320398 stresses="_JSON [-0.5424873994747228, -0.542488334909696, -0.5424876465724209, -2.335088864157576e-07, 2.499281651943736e-06, 2.7177012927674197e-07]" pbc="T T T"
Fe       0.00045698      -0.00012720       0.00059587       2.30000000       0.01154264      -0.00107843      -0.00991760
Fe       1.30320119       1.30158458       1.30158459       2.30000000      -0.01154264       0.00107843       0.00991760
2
Lattice="2.6035999999999997 0.0 0.0 0.0 2.6035999999999997 0.0 0.0 0.0 2.6035999999999997" Properties=species:S:1:pos:R:3:initial_magmoms:R:1:forces:R:3 energy=-15.38577221907375 stresses="_JSON [-0.542487094163941, -0.5424874902621913, -0.5424871988487856, -9.887794792631126e-08, 1.0583055722566736e-06, 1.1507943236098429e-07]" pbc="T T T"
Fe       0.00062187      -0.00014261       0.00045419       2.30000000       0.00751106      -0.00070176      -0.00645361
Fe       1.30303629       1.30159999       1.30172627       2.30000000      -0.00751106       0.00070176       0.00645361
2
Lattice="2.7168 0.0 0.0 0.0 2.7168 0.0 0.0 0.0 2.7168" Properties=species:S:1:pos:R:3:initial_magmoms:R:1:forces:R:3 energy=-16.244946772012156 stresses="_JSON [-0.20949420435268867, -0.20949529066783998, -0.2094944912435919, -4.217410098162481e-08, 4.5138150215485155e-07, 4.9084060273087284e-08]" pbc="T T T"
Fe       0.00047685      -0.00013273       0.00062178       2.30000000       0.01082919      -0.00101178      -0.00930460
Fe       1.35986211       1.35817521       1.35817523       2.30000000      -0.01082919       0.00101178       0.00930460
2
Lattice="2.7168 0.0 0.0 0.0 2.7168 0.0 0.0 0.0 2.7168" Properties=species:S:1:pos:R:3:initial_magmoms:R:1:forces:R:3 energy=-16.244951706377574 stresses="_JSON [-0.20949457538338984, -0.20949508655327714, -0.20949471040359324, -1.98441049252104e-08, 2.1239139453180306e-07, 2.309553696947362e-08]" pbc="T T T"
Fe       0.00063155      -0.00014719       0.00048886       2.30000000       0.00742848      -0.00069405      -0.00638266
Fe       1.35970741       1.35818967       1.35830815       2.30000000      -0.00742848       0.00069405       0.00638266
2
Lattice="2.7168 0.0 0.0 0.0 2.7168 0.0 0.0 0.0 2.7168" Properties=species:S:1:pos:R:3:initial_magmoms:R:1:forces:R:3 energy=-16.244946772012153 stresses="_JSON [-0.20949420435268926, -0.20949529066783953, -0.20949449124359154, -4.217410096674541e-08, 4.513815023347886e-07, 4.9084060183810825e-08]" pbc="T T T"
Fe       0.00047685      -0.00013273       0.00062178       2.30000000       0.01082919      -0.00101178      -0.00930460
Fe       1.35986211       1.35817521       1.35817523       2.30000000      -0.01082919       0.00101178       0.00930460
2
Lattice="2.7168 0.0 0.0 0.0 2.7168 0.0 0.0 0.0 2.7168" Properties=species:S:1:pos:R:3:initial_magmoms:R:1:forces:R:3 energy=-16.244951706377574 stresses="_JSON [-0.20949457538338967, -0.2094950865532769, -0.20949471040359285, -1.9844104939397747e-08, 2.1239139474911164e-07, 2.309553708158824e-08]" pbc="T T T"
Fe       0.00063155      -0.00014719       0.00048886       2.30000000       0.00742848      -0.00069405      -0.00638266
Fe       1.35970741       1.35818967       1.35830815       2.30000000      -0.00742848       0.00069405       0.00638266
2
Lattice="2.80736 0.0 0.0 0.0 2.80736 0.0 0.0 0.0 2.80736" Properties=species:S:1:pos:R:3:initial_magmoms:R:1:forces:R:3 energy=-16.468388125185527 stresses="_JSON [-0.026146610376490867, -0.02614661037649092, -0.02614661039660796, -5.645058270230865e-17, -7.432660055803972e-17, -6.899515663615501e-17]" pbc="T T T"
Fe       0.00000000       0.00000000       0.00000000       2.30000000       0.00000000       0.00000000       0.00000000
Fe       1.40368000       1.40368000       1.40368000       2.30000000      -0.00000000      -0.00000000      -0.00000000
2
Lattice="2.80736 0.0 0.0 0.0 2.80736 0.0 0.0 0.0 2.80736" Properties=species:S:1:pos:R:3:initial_magmoms:R:1:forces:R:3 energy=-16.468388125185527 stresses="_JSON [-0.026146610376490874, -0.026146610376491002, -0.026146610396608014, -7.903081578323211e-17, -8.310780231173218e-17, -7.087684272623198e-17]" pbc="T T T"
Fe       0.00000000       0.00000000       0.00000000       2.30000000       0.00000000       0.00000000       0.00000000
Fe       1.40368000       1.40368000       1.40368000       2.30000000      -0.00000000      -0.00000000      -0.00000000
2
Lattice="2.80736 0.0 0.0 0.0 2.80736 0.0 0.0 0.0 2.80736" Properties=species:S:1:pos:R:3:initial_magmoms:R:1:forces:R:3 energy=-16.468388125185527 stresses="_JSON [-0.02614661037649108, -0.026146610376491207, -0.02614661039660816, -6.774069924277039e-17, -7.432660055803972e-17, -7.213130011961661e-17]" pbc="T T T"
Fe       0.00000000       0.00000000       0.00000000       2.30000000       0.00000000       0.00000000       0.00000000
Fe       1.40368000       1.40368000       1.40368000       2.30000000      -0.00000000      -0.00000000      -0.00000000
