2
Lattice="2.7734 0.0 0.0 0.0 2.7734 0.0 0.0 0.0 2.7734" Properties=species:S:1:pos:R:3:initial_magmoms:R:1:forces:R:3 energy=-16.426857460024696 stresses="_JSON [-0.08163718532225087, -0.08163718532225084, -0.08163718534830182, 1.3011060755730497e-17, 2.2444079803635107e-17, -1.8215485058022697e-17]" pbc="T T T"
Fe       0.00000000       0.00000000       0.00000000       2.30000000       0.00000000       0.00000000       0.00000000
Fe       1.38670000       1.38670000       1.38670000       2.30000000      -0.00000000      -0.00000000      -0.00000000
