2
Lattice="2.2640000000000002 0.0 0.0 0.0 2.2640000000000002 0.0 0.0 0.0 2.2640000000000002" Properties=species:S:1:pos:R:3:initial_magmoms:R:1:forces:R:3 energy=-5.863932637773724 stresses="_JSON [-3.4204034966984462, -3.4204040510228237, -3.420403642867672, -9.98426035262189e-08, 1.068611497470388e-06, 1.1620161959400997e-07]" pbc="T T T"
Fe       0.00039737      -0.00011061       0.00051815       2.30000000       0.01475419      -0.00137850      -0.01267704
Fe       1.13321842       1.13181268       1.13181269       2.30000000      -0.01475419       0.00137850       0.01267704
2
Lattice="2.2640000000000002 0.0 0.0 0.0 2.2640000000000002 0.0 0.0 0.0 2.2640000000000002" Properties=species:S:1:pos:R:3:initial_magmoms:R:1:forces:R:3 energy=-5.863940713985036 stresses="_JSON [-3.420400035217807, -3.4204001664619508, -3.420400069664491, -2.3637031759995473e-08, 2.529915819610525e-07, 2.751006402249894e-08]" pbc="T T T"
Fe       0.00060815      -0.00013030       0.00033705       2.30000000       0.00717902      -0.00067073      -0.00616831
Fe       1.13300765       1.13183237       1.13199379       2.30000000      -0.00717902       0.00067073       0.00616831
2
Lattice="2.2640000000000002 0.0 0.0 0.0 2.2640000000000002 0.0 0.0 0.0 2.2640000000000002" Properties=species:S:1:pos:R:3:initial_magmoms:R:1:forces:R:3 energy=-5.8639326377737095 stresses="_JSON [-3.4204034966984427, -3.420404051022821, -3.4204036428676723, -9.984259866612484e-08, 1.0686114937392134e-06, 1.1620162143089592e-07]" pbc="T T T"
Fe       0.00039737      -0.00011061       0.00051815       2.30000000       0.01475419      -0.00137850      -0.01267704
Fe       1.13321842       1.13181268       1.13181269       2.30000000      -0.01475419       0.00137850       0.01267704
2
Lattice="2.2640000000000002 0.0 0.0 0.0 2.2640000000000002 0.0 0.0 0.0 2.2640000000000002" Properties=species:S:1:pos:R:3:initial_magmoms:R:1:forces:R:3 energy=-5.8639407139850555 stresses="_JSON [-3.420400035217809, -3.4204001664619517, -3.420400069664488, -2.3637030650210216e-08, 2.5299157330281405e-07, 2.7510074852472318e-08]" pbc="T T T"
Fe       0.00060815      -0.00013030       0.00033705       2.30000000       0.00717902      -0.00067073      -0.00616831
Fe       1.13300765       1.13183237       1.13199379       2.30000000      -0.00717902       0.00067073       0.00616831
2
Lattice="2.2640000000000002 0.0 0.0 0.0 2.2640000000000002 0.0 0.0 0.0 2.2640000000000002" Properties=species:S:1:pos:R:3:initial_magmoms:R:1:forces:R:3 energy=-5.863932637773703 stresses="_JSON [-3.4204034966984453, -3.420404051022822, -3.420403642867673, -9.984259835997718e-08, 1.0686114972312103e-06, 1.1620162196665431e-07]" pbc="T T T"
Fe       0.00039737      -0.00011061       0.00051815       2.30000000       0.01475419      -0.00137850      -0.01267704
Fe       1.13321842       1.13181268       1.13181269       2.30000000      -0.01475419       0.00137850       0.01267704
2
Lattice="2.2640000000000002 0.0 0.0 0.0 2.2640000000000002 0.0 0.0 0.0 2.2640000000000002" Properties=species:S:1:pos:R:3:initial_magmoms:R:1:forces:R:3 energy=-5.8639407139850395 stresses="_JSON [-3.420400035217814, -3.4204001664619548, -3.4204000696644954, -2.363702705297524e-08, 2.529915746996127e-07, 2.7510077225116662e-08]" pbc="T T T"
Fe       0.00060815      -0.00013030       0.00033705       2.30000000       0.00717902      -0.00067073      -0.00616831
Fe       1.13300765       1.13183237       1.13199379       2.30000000      -0.00717902       0.00067073       0.00616831
2
Lattice="2.2640000000000002 0.0 0.0 0.0 2.2640000000000002 0.0 0.0 0.0 2.2640000000000002" Properties=species:S:1:pos:R:3:initial_magmoms:R:1:forces:R:3 energy=-5.863932637773716 stresses="_JSON [-3.420403496698446, -3.42040405102282, -3.420403642867673, -9.984260015859467e-08, 1.0686114979009082e-06, 1.1620162181358048e-07]" pbc="T T T"
Fe       0.00039737      -0.00011061       0.00051815       2.30000000       0.01475419      -0.00137850      -0.01267704
Fe       1.13321842       1.13181268       1.13181269       2.30000000      -0.01475419       0.00137850       0.01267704
2
Lattice="2.2640000000000002 0.0 0.0 0.0 2.2640000000000002 0.0 0.0 0.0 2.2640000000000002" Properties=species:S:1:pos:R:3:initial_magmoms:R:1:forces:R:3 energy=-5.863940713985062 stresses="_JSON [-3.4204000352178032, -3.4204001664619494, -3.420400069664489, -2.363703596952576e-08, 2.5299158616101564e-07, 2.7510069380082942e-08]" pbc="T T T"
Fe       0.00060815      -0.00013030       0.00033705       2.30000000       0.00717902      -0.00067073      -0.00616831
Fe       1.13300765       1.13183237       1.13199379       2.30000000      -0.00717902       0.00067073       0.00616831
2
Lattice="2.2640000000000002 0.0 0.0 0.0 2.2640000000000002 0.0 0.0 0.0 2.2640000000000002" Properties=species:S:1:pos:R:3:initial_magmoms:R:1:forces:R:3 energy=-5.863932637773715 stresses="_JSON [-3.420403496698443, -3.4204040510228175, -3.420403642867672, -9.984260145972222e-08, 1.0686114958439787e-06, 1.1620162353566106e-07]" pbc="T T T"
Fe       0.00039737      -0.00011061       0.00051815       2.30000000       0.01475419      -0.00137850      -0.01267704
Fe       1.13321842       1.13181268       1.13181269       2.30000000      -0.01475419       0.00137850       0.01267704
2
Lattice="2.2640000000000002 0.0 0.0 0.0 2.2640000000000002 0.0 0.0 0.0 2.2640000000000002" Properties=species:S:1:pos:R:3:initial_magmoms:R:1:forces:R:3 energy=-5.863940713985059 stresses="_JSON [-3.420400035217802, -3.4204001664619463, -3.420400069664488, -2.363703286978073e-08, 2.529915792344249e-07, 2.751006654821711e-08]" pbc="T T T"
Fe       0.00060815      -0.00013030       0.00033705       2.30000000       0.00717902      -0.00067073      -0.00616831
Fe       1.13300765       1.13183237       1.13199379       2.30000000      -0.00717902       0.00067073       0.00616831
2
Lattice="2.2640000000000002 0.0 0.0 0.0 2.2640000000000002 0.0 0.0 0.0 2.2640000000000002" Properties=species:S:1:pos:R:3:initial_magmoms:R:1:forces:R:3 energy=-5.863932637773711 stresses="_JSON [-3.420403496698444, -3.420404051022814, -3.420403642867669, -9.984260436812496e-08, 1.0686114975947606e-06, 1.1620162039764757e-07]" pbc="T T T"
Fe       0.00039737      -0.00011061       0.00051815       2.30000000       0.01475419      -0.00137850      -0.01267704
Fe       1.13321842       1.13181268       1.13181269       2.30000000      -0.01475419       0.00137850       0.01267704
2
Lattice="2.2640000000000002 0.0 0.0 0.0 2.2640000000000002 0.0 0.0 0.0 2.2640000000000002" Properties=species:S:1:pos:R:3:initial_magmoms:R:1:forces:R:3 energy=-5.863940713985041 stresses="_JSON [-3.420400035217812, -3.4204001664619543, -3.420400069664496, -2.363702667029067e-08, 2.5299157939706586e-07, 2.751007309212329e-08]" pbc="T T T"
Fe       0.00060815      -0.00013030       0.00033705       2.30000000       0.00717902      -0.00067073      -0.00616831
Fe       1.13300765       1.13183237       1.13199379       2.30000000      -0.00717902       0.00067073       0.00616831
2
Lattice="2.2640000000000002 0.0 0.0 0.0 2.2640000000000002 0.0 0.0 0.0 2.2640000000000002" Properties=species:S:1:pos:R:3:initial_magmoms:R:1:forces:R:3 energy=-5.8639326377737255 stresses="_JSON [-3.4204034966984453, -3.420404051022819, -3.4204036428676687, -9.984259962283627e-08, 1.0686114970590021e-06, 1.1620162269375499e-07]" pbc="T T T"
Fe       0.00039737      -0.00011061       0.00051815       2.30000000       0.01475419      -0.00137850      -0.01267704
Fe       1.13321842       1.13181268       1.13181269       2.30000000      -0.01475419       0.00137850       0.01267704
2
Lattice="2.2640000000000002 0.0 0.0 0.0 2.2640000000000002 0.0 0.0 0.0 2.2640000000000002" Properties=species:S:1:pos:R:3:initial_magmoms:R:1:forces:R:3 energy=-5.86394071398505 stresses="_JSON [-3.420400035217808, -3.4204001664619508, -3.420400069664489, -2.3637025637042326e-08, 2.5299157604857585e-07, 2.7510069456619856e-08]" pbc="T T T"
Fe       0.00060815      -0.00013030       0.00033705       2.30000000       0.00717902      -0.00067073      -0.00616831
Fe       1.13300765       1.13183237       1.13199379       2.30000000      -0.00717902       0.00067073       0.00616831
2
Lattice="2.2640000000000002 0.0 0.0 0.0 2.2640000000000002 0.0 0.0 0.0 2.2640000000000002" Properties=species:S:1:pos:R:3:initial_magmoms:R:1:forces:R:3 energy=-5.863932637773717 stresses="_JSON [-3.420403496698444, -3.4204040510228193, -3.420403642867672, -9.984259981417857e-08, 1.0686114981879217e-06, 1.1620162238760735e-07]" pbc="T T T"
Fe       0.00039737      -0.00011061       0.00051815       2.30000000       0.01475419      -0.00137850      -0.01267704
Fe       1.13321842       1.13181268       1.13181269       2.30000000      -0.01475419       0.00137850       0.01267704
2
Lattice="2.2640000000000002 0.0 0.0 0.0 2.2640000000000002 0.0 0.0 0.0 2.2640000000000002" Properties=species:S:1:pos:R:3:initial_magmoms:R:1:forces:R:3 energy=-5.86394071398505 stresses="_JSON [-3.420400035217808, -3.4204001664619494, -3.420400069664491, -2.3637030650210216e-08, 2.529915752927738e-07, 2.751007458459312e-08]" pbc="T T T"
Fe       0.00060815      -0.00013030       0.00033705       2.30000000       0.00717902      -0.00067073      -0.00616831
Fe       1.13300765       1.13183237       1.13199379       2.30000000      -0.00717902       0.00067073       0.00616831
2
Lattice="2.2640000000000002 0.0 0.0 0.0 2.2640000000000002 0.0 0.0 0.0 2.2640000000000002" Properties=species:S:1:pos:R:3:initial_magmoms:R:1:forces:R:3 energy=-5.863932637773717 stresses="_JSON [-3.420403496698447, -3.4204040510228193, -3.420403642867673, -9.98426011153061e-08, 1.068611497116405e-06, 1.1620162058898986e-07]" pbc="T T T"
Fe       0.00039737      -0.00011061       0.00051815       2.30000000       0.01475419      -0.00137850      -0.01267704
Fe       1.13321842       1.13181268       1.13181269       2.30000000      -0.01475419       0.00137850       0.01267704
2
Lattice="2.2640000000000002 0.0 0.0 0.0 2.2640000000000002 0.0 0.0 0.0 2.2640000000000002" Properties=species:S:1:pos:R:3:initial_magmoms:R:1:forces:R:3 energy=-5.8639407139850395 stresses="_JSON [-3.4204000352178054, -3.420400166461947, -3.4204000696644887, -2.3637025101283925e-08, 2.5299157526407246e-07, 2.751007534996226e-08]" pbc="T T T"
Fe       0.00060815      -0.00013030       0.00033705       2.30000000       0.00717902      -0.00067073      -0.00616831
Fe       1.13300765       1.13183237       1.13199379       2.30000000      -0.00717902       0.00067073       0.00616831
2
Lattice="2.2640000000000002 0.0 0.0 0.0 2.2640000000000002 0.0 0.0 0.0 2.2640000000000002" Properties=species:S:1:pos:R:3:initial_magmoms:R:1:forces:R:3 energy=-5.863932637773715 stresses="_JSON [-3.4204034966984476, -3.42040405102282, -3.4204036428676754, -9.984259839824564e-08, 1.0686114960353209e-06, 1.1620161936439923e-07]" pbc="T T T"
Fe       0.00039737      -0.00011061       0.00051815       2.30000000       0.01475419      -0.00137850      -0.01267704
Fe       1.13321842       1.13181268       1.13181269       2.30000000      -0.01475419       0.00137850       0.01267704
2
Lattice="2.2640000000000002 0.0 0.0 0.0 2.2640000000000002 0.0 0.0 0.0 2.2640000000000002" Properties=species:S:1:pos:R:3:initial_magmoms:R:1:forces:R:3 energy=-5.86394071398505 stresses="_JSON [-3.4204000352178054, -3.4204001664619534, -3.4204000696644927, -2.3637022805176495e-08, 2.5299157103540796e-07, 2.751007768433815e-08]" pbc="T T T"
Fe       0.00060815      -0.00013030       0.00033705       2.30000000       0.00717902      -0.00067073      -0.00616831
Fe       1.13300765       1.13183237       1.13199379       2.30000000      -0.00717902       0.00067073       0.00616831
2
Lattice="2.547 0.0 0.0 0.0 2.547 0.0 0.0 0.0 2.547" Properties=species:S:1:pos:R:3:initial_magmoms:R:1:forces:R:3 energy=-14.591998608798825 stresses="_JSON [-0.8995026542985505, -0.8995046464182226, -0.8995031804452515, -2.3646288370147665e-07, 2.530908856450161e-06, 2.7520843821049085e-07]" pbc="T T T"
Fe       0.00044704      -0.00012444       0.00058292       2.30000000       0.01368323      -0.00127842      -0.01175682
Fe       1.27487073       1.27328926       1.27328928       2.30000000      -0.01368323       0.00127842       0.01175682
2
Lattice="2.547 0.0 0.0 0.0 2.547 0.0 0.0 0.0 2.547" Properties=species:S:1:pos:R:3:initial_magmoms:R:1:forces:R:3 energy=-14.592005976453258 stresses="_JSON [-0.8995021574286264, -0.8995028200844617, -0.8995023325248991, -7.865805270043692e-08, 8.418880222122419e-07, 9.154641256042988e-08]" pbc="T T T"
Fe       0.00064252      -0.00014270       0.00041497       2.30000000       0.00789180      -0.00073733      -0.00678075
Fe       1.27467525       1.27330753       1.27345723       2.30000000      -0.00789180       0.00073733       0.00678075
2
Lattice="2.547 0.0 0.0 0.0 2.547 0.0 0.0 0.0 2.547" Properties=species:S:1:pos:R:3:initial_magmoms:R:1:forces:R:3 energy=-14.59200964880988 stresses="_JSON [-0.899501909757051, -0.8995019097570515, -0.899501909876641, -7.861569473209753e-16, -8.936655896896556e-16, -3.9643811873450887e-16]" pbc="T T T"
Fe       0.00090888      -0.00016759       0.00018610       2.30000000       0.00000000      -0.00000000      -0.00000000
Fe       1.27440888       1.27333241       1.27368610       2.30000000      -0.00000000       0.00000000       0.00000000
2
Lattice="2.2640000000000002 0.0 0.0 0.0 2.2640000000000002 0.0 0.0 0.0 2.2640000000000002" Properties=species:S:1:pos:R:3:initial_magmoms:R:1:forces:R:3 energy=-5.863932637773719 stresses="_JSON [-3.420403496698446, -3.4204040510228175, -3.420403642867672, -9.984259858958794e-08, 1.0686114978530726e-06, 1.1620162070379522e-07]" pbc="T T T"
Fe       0.00039737      -0.00011061       0.00051815       2.30000000       0.01475419      -0.00137850      -0.01267704
Fe       1.13321842       1.13181268       1.13181269       2.30000000      -0.01475419       0.00137850       0.01267704
2
Lattice="2.2640000000000002 0.0 0.0 0.0 2.2640000000000002 0.0 0.0 0.0 2.2640000000000002" Properties=species:S:1:pos:R:3:initial_magmoms:R:1:forces:R:3 energy=-5.863940713985045 stresses="_JSON [-3.420400035217808, -3.420400166461956, -3.4204000696644967, -2.363701989677375e-08, 2.529915744317335e-07, 2.7510078143559635e-08]" pbc="T T T"
Fe       0.00060815      -0.00013030       0.00033705       2.30000000       0.00717902      -0.00067073      -0.00616831
Fe       1.13300765       1.13183237       1.13199379       2.30000000      -0.00717902       0.00067073       0.00616831
2
Lattice="2.2640000000000002 0.0 0.0 0.0 2.2640000000000002 0.0 0.0 0.0 2.2640000000000002" Properties=species:S:1:pos:R:3:initial_magmoms:R:1:forces:R:3 energy=-5.863932637773711 stresses="_JSON [-3.4204034966984413, -3.420404051022814, -3.4204036428676705, -9.984260023513159e-08, 1.0686115004266264e-06, 1.162016218901174e-07]" pbc="T T T"
Fe       0.00039737      -0.00011061       0.00051815       2.30000000       0.01475419      -0.00137850      -0.01267704
Fe       1.13321842       1.13181268       1.13181269       2.30000000      -0.01475419       0.00137850       0.01267704
2
Lattice="2.2640000000000002 0.0 0.0 0.0 2.2640000000000002 0.0 0.0 0.0 2.2640000000000002" Properties=species:S:1:pos:R:3:initial_magmoms:R:1:forces:R:3 energy=-5.863940713985038 stresses="_JSON [-3.4204000352178068, -3.420400166461948, -3.420400069664489, -2.363702961696187e-08, 2.52991576479096e-07, 2.7510071255237344e-08]" pbc="T T T"
Fe       0.00060815      -0.00013030       0.00033705       2.30000000       0.00717902      -0.00067073      -0.00616831
Fe       1.13300765       1.13183237       1.13199379       2.30000000      -0.00717902       0.00067073       0.00616831
2
Lattice="2.547 0.0 0.0 0.0 2.547 0.0 0.0 0.0 2.547" Properties=species:S:1:pos:R:3:initial_magmoms:R:1:forces:R:3 energy=-14.591998608798825 stresses="_JSON [-0.89950265429855, -0.899504646418222, -0.8995031804452515, -2.364628837283538e-07, 2.5309088566450204e-06, 2.7520843825752585e-07]" pbc="T T T"
Fe       0.00044704      -0.00012444       0.00058292       2.30000000       0.01368323      -0.00127842      -0.01175682
Fe       1.27487073       1.27328926       1.27328928       2.30000000      -0.01368323       0.00127842       0.01175682
2
Lattice="2.547 0.0 0.0 0.0 2.547 0.0 0.0 0.0 2.547" Properties=species:S:1:pos:R:3:initial_magmoms:R:1:forces:R:3 energy=-14.592005976453265 stresses="_JSON [-0.8995021574286272, -0.8995028200844615, -0.8995023325248982, -7.865805382255838e-08, 8.418880212245062e-07, 9.154641327267463e-08]" pbc="T T T"
Fe       0.00064252      -0.00014270       0.00041497       2.30000000       0.00789180      -0.00073733      -0.00678075
Fe       1.27467525       1.27330753       1.27345723       2.30000000      -0.00789180       0.00073733       0.00678075
2
Lattice="2.547 0.0 0.0 0.0 2.547 0.0 0.0 0.0 2.547" Properties=species:S:1:pos:R:3:initial_magmoms:R:1:forces:R:3 energy=-14.592009648809883 stresses="_JSON [-0.899501909757053, -0.8995019097570526, -0.8995019098766407, -8.533498488014005e-16, -1.5857524749380355e-15, 4.7035031036297664e-17]" pbc="T T T"
Fe       0.00090888      -0.00016759       0.00018610       2.30000000       0.00000000      -0.00000000      -0.00000000
Fe       1.27440888       1.27333241       1.27368610       2.30000000      -0.00000000       0.00000000       0.00000000
2
Lattice="2.547 0.0 0.0 0.0 2.547 0.0 0.0 0.0 2.547" Properties=species:S:1:pos:R:3:initial_magmoms:R:1:forces:R:3 energy=-14.591998608798823 stresses="_JSON [-0.8995026542985498, -0.8995046464182224, -0.8995031804452512, -2.3646288380898528e-07, 2.530908856819722e-06, 2.7520843819033295e-07]" pbc="T T T"
Fe       0.00044704      -0.00012444       0.00058292       2.30000000       0.01368323      -0.00127842      -0.01175682
Fe       1.27487073       1.27328926       1.27328928       2.30000000      -0.01368323       0.00127842       0.01175682
2
Lattice="2.547 0.0 0.0 0.0 2.547 0.0 0.0 0.0 2.547" Properties=species:S:1:pos:R:3:initial_magmoms:R:1:forces:R:3 energy=-14.592005976453262 stresses="_JSON [-0.8995021574286263, -0.899502820084461, -0.8995023325248985, -7.865805361426039e-08, 8.418880212446641e-07, 9.154641295686799e-08]" pbc="T T T"
Fe       0.00064252      -0.00014270       0.00041497       2.30000000       0.00789180      -0.00073733      -0.00678075
Fe       1.27467525       1.27330753       1.27345723       2.30000000      -0.00789180       0.00073733       0.00678075
2
Lattice="2.547 0.0 0.0 0.0 2.547 0.0 0.0 0.0 2.547" Properties=species:S:1:pos:R:3:initial_magmoms:R:1:forces:R:3 energy=-14.592009648809883 stresses="_JSON [-0.8995019097570519, -0.8995019097570517, -0.8995019098766406, -8.466305586533579e-16, -6.853675951003375e-16, -1.2229108069437393e-15]" pbc="T T T"
Fe       0.00090888      -0.00016759       0.00018610       2.30000000       0.00000000      -0.00000000      -0.00000000
Fe       1.27440888       1.27333241       1.27368610       2.30000000      -0.00000000       0.00000000       0.00000000
2
Lattice="2.7734 0.0 0.0 0.0 2.7734 0.0 0.0 0.0 2.7734" Properties=species:S:1:pos:R:3:initial_magmoms:R:1:forces:R:3 energy=-16.426857460024696 stresses="_JSON [-0.08163718532225074, -0.08163718532225071, -0.08163718534830139, 3.3828757964899294e-17, -5.854977340078724e-18, -2.537156847367447e-17]" pbc="T T T"
Fe       0.00000000       0.00000000       0.00000000       2.30000000       0.00000000       0.00000000       0.00000000
Fe       1.38670000       1.38670000       1.38670000       2.30000000      -0.00000000      -0.00000000      -0.00000000
2
Lattice="2.7734 0.0 0.0 0.0 2.7734 0.0 0.0 0.0 2.7734" Properties=species:S:1:pos:R:3:initial_magmoms:R:1:forces:R:3 energy=-16.426857460024696 stresses="_JSON [-0.08163718532225096, -0.08163718532225096, -0.08163718534830186, 3.122654581375319e-17, 1.854076157691596e-17, 6.5055303778652485e-18]" pbc="T T T"
Fe       0.00000000       0.00000000       0.00000000       2.30000000       0.00000000       0.00000000       0.00000000
Fe       1.38670000       1.38670000       1.38670000       2.30000000      -0.00000000      -0.00000000      -0.00000000
2
Lattice="2.7734 0.0 0.0 0.0 2.7734 0.0 0.0 0.0 2.7734" Properties=species:S:1:pos:R:3:initial_magmoms:R:1:forces:R:3 energy=-16.426857460024696 stresses="_JSON [-0.08163718532225087, -0.08163718532225084, -0.08163718534830182, 1.3011060755730497e-17, 2.2444079803635107e-17, -1.8215485058022697e-17]" pbc="T T T"
Fe       0.00000000       0.00000000       0.00000000       2.30000000       0.00000000       0.00000000       0.00000000
Fe       1.38670000       1.38670000       1.38670000       2.30000000      -0.00000000      -0.00000000      -0.00000000
