2
Lattice="2.86396 0.0 0.0 0.0 2.86396 0.0 0.0 0.0 2.86396" Properties=species:S:1:pos:R:3:initial_magmoms:R:1:forces:R:3 energy=-16.458561152365448 stresses="_JSON [0.034954870532632513, 0.034954870532632645, 0.03495487051762128, 9.452341014365373e-18, -2.953856566989179e-18, -2.3630852535913432e-18]" pbc="T T T"
Fe       0.00000000       0.00000000       0.00000000       2.30000000       0.00000000      -0.00000000      -0.00000000
Fe       1.43198000       1.43198000       1.43198000       2.30000000      -0.00000000       0.00000000       0.00000000
