2
Lattice="3.1696000000000004 0.0 0.0 0.0 3.1696000000000004 0.0 0.0 0.0 3.1696000000000004" Properties=species:S:1:pos:R:3:initial_magmoms:R:1:forces:R:3 energy=-15.478217374849635 stresses="_JSON [0.16372086610990666, 0.16372074734128317, 0.16372083474071913, 1.0888976081415379e-09, -1.1655336818408146e-08, -1.2673372666703107e-09]" pbc="T T T"
Fe       0.00055632      -0.00015486       0.00072541       2.30000000       0.00233314      -0.00021799      -0.00200466
Fe       1.58650579       1.58453775       1.58453777       2.30000000      -0.00233314       0.00021799       0.00200466
2
Lattice="3.1696000000000004 0.0 0.0 0.0 3.1696000000000004 0.0 0.0 0.0 3.1696000000000004" Properties=species:S:1:pos:R:3:initial_magmoms:R:1:forces:R:3 energy=-15.478217374849633 stresses="_JSON [0.16372086610990666, 0.1637207473412832, 0.1637208347407192, 1.0888976482369513e-09, -1.1655336830611098e-08, -1.2673372666703107e-09]" pbc="T T T"
Fe       0.00055632      -0.00015486       0.00072541       2.30000000       0.00233314      -0.00021799      -0.00200466
Fe       1.58650579       1.58453775       1.58453777       2.30000000      -0.00233314       0.00021799       0.00200466
2
Lattice="3.1696000000000004 0.0 0.0 0.0 3.1696000000000004 0.0 0.0 0.0 3.1696000000000004" Properties=species:S:1:pos:R:3:initial_magmoms:R:1:forces:R:3 energy=-15.478217374849635 stresses="_JSON [0.16372086610990666, 0.16372074734128322, 0.1637208347407192, 1.0888976011684225e-09, -1.1655336846300608e-08, -1.2673372631837531e-09]" pbc="T T T"
Fe       0.00055632      -0.00015486       0.00072541       2.30000000       0.00233314      -0.00021799      -0.00200466
Fe       1.58650579       1.58453775       1.58453777       2.30000000      -0.00233314       0.00021799       0.00200466
2
Lattice="3.1696000000000004 0.0 0.0 0.0 3.1696000000000004 0.0 0.0 0.0 3.1696000000000004" Properties=species:S:1:pos:R:3:initial_magmoms:R:1:forces:R:3 energy=-15.478217374849635 stresses="_JSON [0.1637208661099067, 0.1637207473412832, 0.1637208347407192, 1.0888976159862926e-09, -1.1655336834097656e-08, -1.2673372945627723e-09]" pbc="T T T"
Fe       0.00055632      -0.00015486       0.00072541       2.30000000       0.00233314      -0.00021799      -0.00200466
Fe       1.58650579       1.58453775       1.58453777       2.30000000      -0.00233314       0.00021799       0.00200466
2
Lattice="3.1696000000000004 0.0 0.0 0.0 3.1696000000000004 0.0 0.0 0.0 3.1696000000000004" Properties=species:S:1:pos:R:3:initial_magmoms:R:1:forces:R:3 energy=-15.478217374849635 stresses="_JSON [0.16372086610990666, 0.16372074734128325, 0.16372083474071922, 1.088897579377437e-09, -1.1655336840199132e-08, -1.2673372771299837e-09]" pbc="T T T"
Fe       0.00055632      -0.00015486       0.00072541       2.30000000       0.00233314      -0.00021799      -0.00200466
Fe       1.58650579       1.58453775       1.58453777       2.30000000      -0.00233314       0.00021799       0.00200466
2
Lattice="3.1696000000000004 0.0 0.0 0.0 3.1696000000000004 0.0 0.0 0.0 3.1696000000000004" Properties=species:S:1:pos:R:3:initial_magmoms:R:1:forces:R:3 energy=-15.478217374849635 stresses="_JSON [0.1637208661099067, 0.16372074734128325, 0.1637208347407192, 1.0888975985535042e-09, -1.1655336839327492e-08, -1.2673372631837531e-09]" pbc="T T T"
Fe       0.00055632      -0.00015486       0.00072541       2.30000000       0.00233314      -0.00021799      -0.00200466
Fe       1.58650579       1.58453775       1.58453777       2.30000000      -0.00233314       0.00021799       0.00200466
2
Lattice="3.1696000000000004 0.0 0.0 0.0 3.1696000000000004 0.0 0.0 0.0 3.1696000000000004" Properties=species:S:1:pos:R:3:initial_magmoms:R:1:forces:R:3 energy=-15.478217374849635 stresses="_JSON [0.16372086610990663, 0.16372074734128317, 0.16372083474071913, 1.0888975750192399e-09, -1.165533685763192e-08, -1.2673372736434261e-09]" pbc="T T T"
Fe       0.00055632      -0.00015486       0.00072541       2.30000000       0.00233314      -0.00021799      -0.00200466
Fe       1.58650579       1.58453775       1.58453777       2.30000000      -0.00233314       0.00021799       0.00200466
2
Lattice="3.1696000000000004 0.0 0.0 0.0 3.1696000000000004 0.0 0.0 0.0 3.1696000000000004" Properties=species:S:1:pos:R:3:initial_magmoms:R:1:forces:R:3 energy=-15.478217374849633 stresses="_JSON [0.16372086610990655, 0.16372074734128308, 0.16372083474071908, 1.0888976308041629e-09, -1.165533684281405e-08, -1.2673372492375223e-09]" pbc="T T T"
Fe       0.00055632      -0.00015486       0.00072541       2.30000000       0.00233314      -0.00021799      -0.00200466
Fe       1.58650579       1.58453775       1.58453777       2.30000000      -0.00233314       0.00021799       0.00200466
2
Lattice="3.1696000000000004 0.0 0.0 0.0 3.1696000000000004 0.0 0.0 0.0 3.1696000000000004" Properties=species:S:1:pos:R:3:initial_magmoms:R:1:forces:R:3 energy=-15.478217374849635 stresses="_JSON [0.16372086610990666, 0.16372074734128317, 0.1637208347407192, 1.088897600296783e-09, -1.165533681492159e-08, -1.2673372701568685e-09]" pbc="T T T"
Fe       0.00055632      -0.00015486       0.00072541       2.30000000       0.00233314      -0.00021799      -0.00200466
Fe       1.58650579       1.58453775       1.58453777       2.30000000      -0.00233314       0.00021799       0.00200466
2
Lattice="3.1696000000000004 0.0 0.0 0.0 3.1696000000000004 0.0 0.0 0.0 3.1696000000000004" Properties=species:S:1:pos:R:3:initial_magmoms:R:1:forces:R:3 energy=-15.478217374849635 stresses="_JSON [0.16372086610990666, 0.1637207473412832, 0.16372083474071913, 1.088897581992355e-09, -1.1655336829739458e-08, -1.2673372806165415e-09]" pbc="T T T"
Fe       0.00055632      -0.00015486       0.00072541       2.30000000       0.00233314      -0.00021799      -0.00200466
Fe       1.58650579       1.58453775       1.58453777       2.30000000      -0.00233314       0.00021799       0.00200466
2
Lattice="2.9998 0.0 0.0 0.0 2.9998 0.0 0.0 0.0 2.9998" Properties=species:S:1:pos:R:3:initial_magmoms:R:1:forces:R:3 energy=-16.1783960488954 stresses="_JSON [0.11516872273515888, 0.1151683169525089, 0.11516861557556968, 5.1155588394711324e-09, -5.4754837714163945e-08, -5.953824743047883e-09]" pbc="T T T"
Fe       0.00052652      -0.00014656       0.00068655       2.30000000       0.00534107      -0.00049902      -0.00458913
Fe       1.50151441       1.49965180       1.49965181       2.30000000      -0.00534107       0.00049902       0.00458913
2
Lattice="3.1696000000000004 0.0 0.0 0.0 3.1696000000000004 0.0 0.0 0.0 3.1696000000000004" Properties=species:S:1:pos:R:3:initial_magmoms:R:1:forces:R:3 energy=-15.478217374849633 stresses="_JSON [0.16372086610990666, 0.16372074734128314, 0.16372083474071916, 1.0888976142430138e-09, -1.1655336840199132e-08, -1.2673372387778493e-09]" pbc="T T T"
Fe       0.00055632      -0.00015486       0.00072541       2.30000000       0.00233314      -0.00021799      -0.00200466
Fe       1.58650579       1.58453775       1.58453777       2.30000000      -0.00233314       0.00021799       0.00200466
2
Lattice="3.1696000000000004 0.0 0.0 0.0 3.1696000000000004 0.0 0.0 0.0 3.1696000000000004" Properties=species:S:1:pos:R:3:initial_magmoms:R:1:forces:R:3 energy=-15.478217374849633 stresses="_JSON [0.1637208661099066, 0.16372074734128317, 0.16372083474071913, 1.0888975663028455e-09, -1.1655336838455854e-08, -1.2673372945627723e-09]" pbc="T T T"
Fe       0.00055632      -0.00015486       0.00072541       2.30000000       0.00233314      -0.00021799      -0.00200466
Fe       1.58650579       1.58453775       1.58453777       2.30000000      -0.00233314       0.00021799       0.00200466
2
Lattice="2.9998 0.0 0.0 0.0 2.9998 0.0 0.0 0.0 2.9998" Properties=species:S:1:pos:R:3:initial_magmoms:R:1:forces:R:3 energy=-16.1783960488954 stresses="_JSON [0.115168722735159, 0.11516831695250904, 0.11516861557556964, 5.115558813766385e-09, -5.4754837675092724e-08, -5.9538247492170226e-09]" pbc="T T T"
Fe       0.00052652      -0.00014656       0.00068655       2.30000000       0.00534107      -0.00049902      -0.00458913
Fe       1.50151441       1.49965180       1.49965181       2.30000000      -0.00534107       0.00049902       0.00458913
2
Lattice="2.9998 0.0 0.0 0.0 2.9998 0.0 0.0 0.0 2.9998" Properties=species:S:1:pos:R:3:initial_magmoms:R:1:forces:R:3 energy=-16.1783960488954 stresses="_JSON [0.11516872273515907, 0.11516831695250866, 0.11516861557556972, 5.1155588271328535e-09, -5.4754837687431e-08, -5.953824737906933e-09]" pbc="T T T"
Fe       0.00052652      -0.00014656       0.00068655       2.30000000       0.00534107      -0.00049902      -0.00458913
Fe       1.50151441       1.49965180       1.49965181       2.30000000      -0.00534107       0.00049902       0.00458913
2
Lattice="2.86396 0.0 0.0 0.0 2.86396 0.0 0.0 0.0 2.86396" Properties=species:S:1:pos:R:3:initial_magmoms:R:1:forces:R:3 energy=-16.45856115236545 stresses="_JSON [0.034954870532632826, 0.03495487053263277, 0.03495487051762131, 1.1815426267956715e-17, -2.3630852535913432e-18, 1.0043112327763208e-17]" pbc="T T T"
Fe       0.00000000       0.00000000       0.00000000       2.30000000      -0.00000000       0.00000000      -0.00000000
Fe       1.43198000       1.43198000       1.43198000       2.30000000       0.00000000      -0.00000000       0.00000000
2
Lattice="2.86396 0.0 0.0 0.0 2.86396 0.0 0.0 0.0 2.86396" Properties=species:S:1:pos:R:3:initial_magmoms:R:1:forces:R:3 energy=-16.458561152365448 stresses="_JSON [0.034954870532632736, 0.0349548705326327, 0.03495487051762118, -4.7261705071826865e-18, -1.7723139401935072e-18, 4.7261705071826865e-18]" pbc="T T T"
Fe       0.00000000       0.00000000       0.00000000       2.30000000      -0.00000000       0.00000000      -0.00000000
Fe       1.43198000       1.43198000       1.43198000       2.30000000      -0.00000000       0.00000000       0.00000000
2
Lattice="2.86396 0.0 0.0 0.0 2.86396 0.0 0.0 0.0 2.86396" Properties=species:S:1:pos:R:3:initial_magmoms:R:1:forces:R:3 energy=-16.458561152365448 stresses="_JSON [0.034954870532632513, 0.034954870532632645, 0.03495487051762128, 9.452341014365373e-18, -2.953856566989179e-18, -2.3630852535913432e-18]" pbc="T T T"
Fe       0.00000000       0.00000000       0.00000000       2.30000000       0.00000000      -0.00000000      -0.00000000
Fe       1.43198000       1.43198000       1.43198000       2.30000000      -0.00000000       0.00000000       0.00000000
