36
Lattice="2.44925628 0.0 0.0 0.0 3.99961876 0.0 0.0 0.0 60.69585207619453" Properties=species:S:1:pos:R:3:forces:R:3 energy=-293.09879777836807 stresses="_JSON [0.0017471951088923166, 0.0027216486575009228, 0.0007439359863100432, 1.6898453825830005e-17, -5.617507409317095e-06, -1.1203394801655252e-17]" pbc="T T T"
Fe      -0.11696876      -0.00000000      10.07395761      -0.00266805       0.00000000       0.00429960
Fe       0.85754256       1.99980938      11.14276496      -0.00213586      -0.00000000      -0.00136204
Fe       1.64131856      -0.00000000      12.35203918       0.00099295       0.00000000       0.00118662
Fe       0.01646059       1.99980938      13.51407942      -0.00369971      -0.00000000       0.00066808
Fe       0.83016769      -0.00000000      14.67926272      -0.00256476       0.00000000       0.00717232
Fe       1.64579014       1.99980938      15.83087222      -0.00428350       0.00000000       0.00129592
Fe       0.00944354       0.00000000      16.98806998      -0.00111998      -0.00000000      -0.00044707
Fe       0.82221078       1.99980938      18.14268436       0.00113879       0.00000000       0.00183702
Fe       1.63553090       0.00000000      19.29837613       0.00189267      -0.00000000      -0.00184018
Fe      -0.00009181       1.99980938      20.45332733       0.00126868       0.00000000       0.00195326
Fe       0.81390514       0.00000000      21.60874837       0.00062874      -0.00000000       0.00338833
Fe       1.62791681       1.99980938      22.76461634       0.00087207      -0.00000000      -0.00372262
Fe      -0.00682798       0.00000000      23.91981407       0.00156711       0.00000000       0.00008114
Fe       0.80770714       1.99980938      25.07517652       0.00181373       0.00000000       0.00362362
Fe       1.62369322      -0.00000000      26.23179362      -0.00018451      -0.00000000       0.00031518
Fe      -0.01010270       1.99980938      27.39060299       0.00096224      -0.00000000       0.00213175
Fe       0.81932564      -0.00000000      28.55285998       0.00204718       0.00000000      -0.00012091
Fe       1.62540563       1.99980938      29.70622168       0.00298628      -0.00000000      -0.00435578
Fe       0.10609983      -0.00000000      30.92891357       0.00091612       0.00000000       0.00008023
Fe       1.62544210       1.99980938      32.15161631       0.00294699       0.00000000       0.00392028
Fe       0.81932812      -0.00000000      33.30496090       0.00195718      -0.00000000      -0.00147393
Fe      -0.01012581       1.99980938      34.46708083       0.00087833      -0.00000000      -0.00421204
Fe       1.62364531      -0.00000000      35.62561241      -0.00020827       0.00000000      -0.00179716
Fe       0.80764528       1.99980938      36.78183804       0.00227941      -0.00000000      -0.00345592
Fe      -0.00682693      -0.00000000      37.93681369       0.00261072      -0.00000000       0.00140108
Fe       1.62825297       1.99980938      39.09177837       0.00217391      -0.00000000       0.00288029
Fe       0.81475873      -0.00000000      40.24741777       0.00246745       0.00000000      -0.00485912
Fe       0.00183802       1.99980938      41.40203890       0.00071372      -0.00000000      -0.00272002
Fe       1.63821368      -0.00000000      42.55698181       0.00032227       0.00000000      -0.00133066
Fe       0.82577429       1.99980938      43.71107794      -0.00181127       0.00000000       0.00246596
Fe       0.01298439      -0.00000000      44.86782802      -0.00473559       0.00000000       0.00051484
Fe       1.64659827       1.99980938      46.01916149      -0.00263942      -0.00000000      -0.00754910
Fe       0.83297208      -0.00000000      47.18408513      -0.00394335      -0.00000000      -0.00221613
Fe       0.00849376       1.99980938      48.34557476       0.00098610       0.00000000      -0.00098892
Fe       1.67394390      -0.00000000      49.55437734      -0.00199983      -0.00000000       0.00393193
Fe       0.69961027       1.99980938      50.62291255      -0.00242853      -0.00000000      -0.00069582
