36
Lattice="2.44925628 0.0 0.0 0.0 3.99961876 0.0 0.0 0.0 60.69585207619453" Properties=species:S:1:pos:R:3:forces:R:3 energy=-292.9483578064312 stresses="_JSON [0.003416542247101719, 0.0036494126304342286, 0.003428286074529068, -6.068505517563262e-18, -5.968673622689905e-06, -9.33616233471271e-18]" pbc="T T T"
Fe       0.00000000       0.00000000      10.00000000      -0.26193330      -0.00000000       0.41452443
Fe       0.81641876       1.99980938      11.16273863       0.23203520       0.00000000      -0.36277720
Fe       1.63283752       0.00000000      12.32547726       0.05176161      -0.00000000      -0.16896558
Fe      -0.00000000       1.99980938      13.48821589      -0.02580313       0.00000000       0.12699412
Fe       0.81641876       0.00000000      14.65095452      -0.00233079      -0.00000000       0.10603698
Fe       1.63283752       1.99980938      15.81369315       0.00146757       0.00000000       0.00798618
Fe       0.00000000       0.00000000      16.97643179       0.00217152      -0.00000000      -0.00283693
Fe       0.81641876       1.99980938      18.13917041      -0.00042084       0.00000000      -0.00128211
Fe       1.63283752       0.00000000      19.30190905      -0.00000000      -0.00000000      -0.00000005
Fe      -0.00000000       1.99980938      20.46464768      -0.00000000       0.00000000      -0.00000000
Fe       0.81641876       0.00000000      21.62738630       0.00000000      -0.00000000       0.00000005
Fe       1.63283752       1.99980938      22.79012494      -0.00004018       0.00000000      -0.00053680
Fe       0.00000000       0.00000000      23.95286356       0.00023995      -0.00000000      -0.00562999
Fe       0.81641876       1.99980938      25.11560220       0.00002803       0.00000000      -0.00688548
Fe       1.63283752       0.00000000      26.27834083      -0.00471377      -0.00000000      -0.02272837
Fe      -0.00000000       1.99980938      27.44107946      -0.02669629       0.00000000      -0.01433218
Fe       0.81641876       0.00000000      28.60381809       0.03153794      -0.00000000      -0.09662604
Fe       1.63283752       1.99980938      29.76655673      -0.18678557       0.00000000      -0.70036426
Fe       0.00000000       0.00000000      30.92929535       0.37896410      -0.00000000      -0.00000000
Fe       1.63283752       1.99980938      32.09203398      -0.18678557       0.00000000       0.70036426
Fe       0.81641876       0.00000000      33.25477261       0.03153794      -0.00000000       0.09662604
Fe      -0.00000000       1.99980938      34.41751124      -0.02669629       0.00000000       0.01433218
Fe       1.63283752       0.00000000      35.58024988      -0.00471377      -0.00000000       0.02272837
Fe       0.81641876       1.99980938      36.74298850       0.00002803      -0.00000000       0.00688548
Fe       0.00000000       0.00000000      37.90572714       0.00023995      -0.00000000       0.00562999
Fe       1.63283752       1.99980938      39.06846576      -0.00004018       0.00000000       0.00053680
Fe       0.81641876       0.00000000      40.23120440       0.00000000      -0.00000000      -0.00000005
Fe      -0.00000000       1.99980938      41.39394303       0.00000000       0.00000000      -0.00000000
Fe       1.63283752       0.00000000      42.55668165      -0.00042085      -0.00000000       0.00128219
Fe       0.81641876       1.99980938      43.71942029       0.00217153       0.00000000       0.00283689
Fe       0.00000000       0.00000000      44.88215892       0.00146756      -0.00000000      -0.00798613
Fe       1.63283752       1.99980938      46.04489755      -0.00233078       0.00000000      -0.10603702
Fe       0.81641876       0.00000000      47.20763618      -0.02580314      -0.00000000      -0.12699408
Fe      -0.00000000       1.99980938      48.37037481       0.05176162       0.00000000       0.16896554
Fe       1.63283752       0.00000000      49.53311344       0.23203520      -0.00000000       0.36277725
Fe       0.81641876       1.99980938      50.69585208      -0.26193329       0.00000000      -0.41452446
