36
Lattice="2.44925628 0.0 0.0 0.0 3.99961876 0.0 0.0 0.0 60.69585207619453" Properties=species:S:1:pos:R:3:forces:R:3 energy=-292.9483578064312 stresses="_JSON [0.003416542247101719, 0.0036494126304342286, 0.003428286074529068, -6.068505517563262e-18, -5.968673622689905e-06, -9.33616233471271e-18]" pbc="T T T"
Fe       0.00000000       0.00000000      10.00000000      -0.26193330      -0.00000000       0.41452443
Fe       0.81641876       1.99980938      11.16273863       0.23203520       0.00000000      -0.36277720
Fe       1.63283752       0.00000000      12.32547726       0.05176161      -0.00000000      -0.16896558
Fe      -0.00000000       1.99980938      13.48821589      -0.02580313       0.00000000       0.12699412
Fe       0.81641876       0.00000000      14.65095452      -0.00233079      -0.00000000       0.10603698
Fe       1.63283752       1.99980938      15.81369315       0.00146757       0.00000000       0.00798618
Fe       0.00000000       0.00000000      16.97643179       0.00217152      -0.00000000      -0.00283693
Fe       0.81641876       1.99980938      18.13917041      -0.00042084       0.00000000      -0.00128211
Fe       1.63283752       0.00000000      19.30190905      -0.00000000      -0.00000000      -0.00000005
Fe      -0.00000000       1.99980938      20.46464768      -0.00000000       0.00000000      -0.00000000
Fe       0.81641876       0.00000000      21.62738630       0.00000000      -0.00000000       0.00000005
Fe       1.63283752       1.99980938      22.79012494      -0.00004018       0.00000000      -0.00053680
Fe       0.00000000       0.00000000      23.95286356       0.00023995      -0.00000000      -0.00562999
Fe       0.81641876       1.99980938      25.11560220       0.00002803       0.00000000      -0.00688548
Fe       1.63283752       0.00000000      26.27834083      -0.00471377      -0.00000000      -0.02272837
Fe      -0.00000000       1.99980938      27.44107946      -0.02669629       0.00000000      -0.01433218
Fe       0.81641876       0.00000000      28.60381809       0.03153794      -0.00000000      -0.09662604
Fe       1.63283752       1.99980938      29.76655673      -0.18678557       0.00000000      -0.70036426
Fe       0.00000000       0.00000000      30.92929535       0.37896410      -0.00000000      -0.00000000
Fe       1.63283752       1.99980938      32.09203398      -0.18678557       0.00000000       0.70036426
Fe       0.81641876       0.00000000      33.25477261       0.03153794      -0.00000000       0.09662604
Fe      -0.00000000       1.99980938      34.41751124      -0.02669629       0.00000000       0.01433218
Fe       1.63283752       0.00000000      35.58024988      -0.00471377      -0.00000000       0.02272837
Fe       0.81641876       1.99980938      36.74298850       0.00002803      -0.00000000       0.00688548
Fe       0.00000000       0.00000000      37.90572714       0.00023995      -0.00000000       0.00562999
Fe       1.63283752       1.99980938      39.06846576      -0.00004018       0.00000000       0.00053680
Fe       0.81641876       0.00000000      40.23120440       0.00000000      -0.00000000      -0.00000005
Fe      -0.00000000       1.99980938      41.39394303       0.00000000       0.00000000      -0.00000000
Fe       1.63283752       0.00000000      42.55668165      -0.00042085      -0.00000000       0.00128219
Fe       0.81641876       1.99980938      43.71942029       0.00217153       0.00000000       0.00283689
Fe       0.00000000       0.00000000      44.88215892       0.00146756      -0.00000000      -0.00798613
Fe       1.63283752       1.99980938      46.04489755      -0.00233078       0.00000000      -0.10603702
Fe       0.81641876       0.00000000      47.20763618      -0.02580314      -0.00000000      -0.12699408
Fe      -0.00000000       1.99980938      48.37037481       0.05176162       0.00000000       0.16896554
Fe       1.63283752       0.00000000      49.53311344       0.23203520      -0.00000000       0.36277725
Fe       0.81641876       1.99980938      50.69585208      -0.26193329       0.00000000      -0.41452446
36
Lattice="2.44925628 0.0 0.0 0.0 3.99961876 0.0 0.0 0.0 60.69585207619453" Properties=species:S:1:pos:R:3:forces:R:3 energy=-292.97698780971757 stresses="_JSON [0.003340853164389194, 0.0035803387514502447, 0.003435837756008838, -1.0456501814878235e-17, -5.968675740515613e-06, -1.3630797008680557e-17]" pbc="T T T"
Fe      -0.00374190      -0.00000000      10.00592178      -0.25410171      -0.00000000       0.36348363
Fe       0.81973355       1.99980938      11.15755609       0.21906323       0.00000000      -0.31326674
Fe       1.63357697      -0.00000000      12.32306347       0.04951796      -0.00000000      -0.12663116
Fe      -0.00036862       1.99980938      13.49003009      -0.01845180       0.00000000       0.09489796
Fe       0.81638546      -0.00000000      14.65246934      -0.00089010      -0.00000000       0.08455014
Fe       1.63285849       1.99980938      15.81380724       0.00061669       0.00000000       0.01384185
Fe       0.00003102      -0.00000000      16.97639126       0.00145786      -0.00000000       0.00350938
Fe       0.81641275       1.99980938      18.13915210      -0.00040238       0.00000000       0.00009004
Fe       1.63283752      -0.00000000      19.30190905       0.00008207      -0.00000000      -0.00041785
Fe      -0.00000000       1.99980938      20.46464768       0.00007597       0.00000000      -0.00057645
Fe       0.81641876      -0.00000000      21.62738630       0.00009080      -0.00000000      -0.00042582
Fe       1.63283695       1.99980938      22.79011727      -0.00020599      -0.00000000      -0.00060890
Fe       0.00000343      -0.00000000      23.95278314       0.00018067      -0.00000000      -0.00447967
Fe       0.81641916       1.99980938      25.11550384      -0.00086112       0.00000000      -0.00738054
Fe       1.63277018      -0.00000000      26.27801614      -0.00422321      -0.00000000      -0.02686784
Fe      -0.00038138       1.99980938      27.44087472      -0.02398799       0.00000000      -0.04608313
Fe       0.81686930      -0.00000000      28.60243772       0.02410507      -0.00000000      -0.10606243
Fe       1.63016915       1.99980938      29.75655152      -0.16222167       0.00000000      -0.53578537
Fe       0.00541377      -0.00000000      30.92929535       0.34031128      -0.00000000      -0.00000000
Fe       1.63016915       1.99980938      32.10203918      -0.16222167      -0.00000000       0.53578537
Fe       0.81686930      -0.00000000      33.25615299       0.02410509      -0.00000000       0.10606266
Fe      -0.00038138       1.99980938      34.41771599      -0.02398781       0.00000000       0.04608373
Fe       1.63277018      -0.00000000      35.58057457      -0.00422348       0.00000000       0.02686634
Fe       0.81641916       1.99980938      36.74308687      -0.00086414      -0.00000000       0.00735628
Fe       0.00000343      -0.00000000      37.90580757       0.00017025       0.00000000       0.00444947
Fe       1.63283695       1.99980938      39.06847343      -0.00018256      -0.00000000       0.00070422
Fe       0.81641876      -0.00000000      40.23120440       0.00013890      -0.00000000       0.00080497
Fe       0.00000000       1.99980938      41.39394303       0.00010625       0.00000000       0.00057489
Fe       1.63283151      -0.00000000      42.55669997      -0.00040959       0.00000000      -0.00008514
Fe       0.81644978       1.99980938      43.71946082       0.00145905       0.00000000      -0.00351759
Fe       0.00002097      -0.00000000      44.88204483       0.00061584      -0.00000000      -0.01384106
Fe       1.63280422       1.99980938      46.04338274      -0.00088959       0.00000000      -0.08454873
Fe       0.81605014      -0.00000000      47.20582198      -0.01845166      -0.00000000      -0.09489685
Fe       0.00073945       1.99980938      48.37278861       0.04951797       0.00000000       0.12663122
Fe       1.63615231      -0.00000000      49.53829597       0.21906322       0.00000000       0.31326678
Fe       0.81267686       1.99980938      50.68993030      -0.25410171       0.00000000      -0.36348366
36
Lattice="2.44925628 0.0 0.0 0.0 3.99961876 0.0 0.0 0.0 60.69585207619453" Properties=species:S:1:pos:R:3:forces:R:3 energy=-293.05032863879956 stresses="_JSON [0.0027240515743754815, 0.0029518424664785187, 0.002917495792844651, -1.577811434566448e-17, -5.970507072654335e-06, 8.40254610124144e-18]" pbc="T T T"
Fe      -0.02622423      -0.00000000      10.03821785      -0.19764956      -0.00000000       0.07039038
Fe       0.83913697       1.99980938      11.12970303       0.14305173      -0.00000000      -0.05348508
Fe       1.63796065      -0.00000000      12.31172835       0.02936660       0.00000000       0.09877088
Fe      -0.00202432       1.99980938      13.49852595       0.02077878      -0.00000000      -0.05368655
Fe       0.81630189      -0.00000000      14.66001454       0.00640288      -0.00000000      -0.01854432
Fe       1.63291589       1.99980938      15.81501050      -0.00320419       0.00000000       0.03746410
Fe       0.00016229      -0.00000000      16.97667974      -0.00187622      -0.00000000       0.03190922
Fe       0.81637713       1.99980938      18.13915537      -0.00054502       0.00000000       0.00890534
Fe       1.63284449      -0.00000000      19.30187355       0.00031423      -0.00000000      -0.00036833
Fe       0.00000645       1.99980938      20.46459870       0.00036895       0.00000000      -0.00261281
Fe       0.81642647      -0.00000000      21.62735012       0.00044079      -0.00000000      -0.00210650
Fe       1.63281931       1.99980938      22.79006371      -0.00100876       0.00000000      -0.00172350
Fe       0.00001960      -0.00000000      23.95238333      -0.00015207      -0.00000000      -0.00257733
Fe       0.81634609       1.99980938      25.11485329      -0.00373695       0.00000000      -0.01950299
Fe       1.63239529      -0.00000000      26.27565588      -0.00279885       0.00000000      -0.05457397
Fe      -0.00251049       1.99980938      27.43691054      -0.01081380      -0.00000000      -0.18463827
Fe       0.81902488      -0.00000000      28.59309690      -0.02016951       0.00000000      -0.13929529
Fe       1.61574942       1.99980938      29.70864141      -0.03851722      -0.00000000       0.17981271
Fe       0.03561979      -0.00000000      30.92929535       0.15949656      -0.00000000       0.00000101
Fe       1.61574942       1.99980938      32.14994929      -0.03851706       0.00000000      -0.17981147
Fe       0.81902488      -0.00000000      33.26549382      -0.02017001      -0.00000000       0.13929240
Fe      -0.00251048       1.99980938      34.42168021      -0.01081566       0.00000000       0.18462179
Fe       1.63239527       0.00000000      35.58293470      -0.00280483       0.00000000       0.05454812
Fe       0.81634584       1.99980938      36.74373535      -0.00374434      -0.00000000       0.01943677
Fe       0.00001871      -0.00000000      37.90620480      -0.00017966      -0.00000000       0.00261109
Fe       1.63282130       1.99980938      39.06853510      -0.00087033       0.00000000       0.00223754
Fe       0.81643056      -0.00000000      40.23127279       0.00064447      -0.00000000       0.00345500
Fe       0.00000903       1.99980938      41.39399187       0.00038491       0.00000000       0.00100718
Fe       1.63279527      -0.00000000      42.55669711      -0.00056226      -0.00000000      -0.00879509
Fe       0.81658115       1.99980938      43.71917163      -0.00185928      -0.00000000      -0.03186126
Fe       0.00007829      -0.00000000      44.88084163      -0.00320750       0.00000000      -0.03744588
Fe       1.63272069       1.99980938      46.03583765       0.00640501      -0.00000000       0.01854966
Fe       0.81439445      -0.00000000      47.19732621       0.02077916       0.00000000       0.05368968
Fe       0.00512313       1.99980938      48.38412374       0.02936666       0.00000000      -0.09876998
Fe       1.65555573      -0.00000000      49.56614904       0.14305186      -0.00000000       0.05348591
Fe       0.79019453       1.99980938      50.65763422      -0.19764952      -0.00000000      -0.07039015
36
Lattice="2.44925628 0.0 0.0 0.0 3.99961876 0.0 0.0 0.0 60.69585207619453" Properties=species:S:1:pos:R:3:forces:R:3 energy=-293.0565592332838 stresses="_JSON [0.002634611924876984, 0.0028596068581824997, 0.002773131159539245, -1.456441324215183e-17, -5.972571493685785e-06, -1.8952409539466802e-17]" pbc="T T T"
Fe      -0.03197025      -0.00000000      10.04325022      -0.18148262       0.00000000       0.02806994
Fe       0.84368395       1.99980938      11.12545952       0.12497618       0.00000000      -0.01626603
Fe       1.63893967      -0.00000000      12.31182091       0.02447047       0.00000000       0.11662032
Fe      -0.00191492       1.99980938      13.49877598       0.02707331      -0.00000000      -0.06075326
Fe       0.81638798      -0.00000000      14.66067143       0.00685042       0.00000000      -0.02345507
Fe       1.63287502       1.99980938      15.81571990      -0.00286793       0.00000000       0.03333533
Fe       0.00015043      -0.00000000      16.97719374      -0.00184662      -0.00000000       0.03066569
Fe       0.81636438       1.99980938      18.13929098      -0.00071492       0.00000000       0.01101633
Fe       1.63284998      -0.00000000      19.30186488       0.00019776       0.00000000       0.00146359
Fe       0.00001275       1.99980938      20.46455382       0.00028807       0.00000000      -0.00187025
Fe       0.81643400      -0.00000000      21.62731421       0.00036701      -0.00000000      -0.00193046
Fe       1.63280196       1.99980938      22.79003069      -0.00099884       0.00000000      -0.00280790
Fe       0.00001929      -0.00000000      23.95229279      -0.00018926       0.00000000      -0.00627631
Fe       0.81628174       1.99980938      25.11447351      -0.00327874      -0.00000000      -0.02896051
Fe       1.63230617      -0.00000000      26.27453828      -0.00343788       0.00000000      -0.06154006
Fe      -0.00293688       1.99980938      27.43365300      -0.01079359      -0.00000000      -0.16994090
Fe       0.81898374      -0.00000000      28.58985298      -0.02499343       0.00000000      -0.12647188
Fe       1.61338631       1.99980938      29.70535707      -0.02037176      -0.00000000       0.21128992
Fe       0.04176474      -0.00000000      30.92929537       0.13350494      -0.00000000       0.00000137
Fe       1.61338631       1.99980938      32.15323366      -0.02037160      -0.00000000      -0.21128967
Fe       0.81898373      -0.00000000      33.26873770      -0.02499489       0.00000000       0.12646354
Fe      -0.00293689       1.99980938      34.42493750      -0.01079752      -0.00000000       0.16991190
Fe       1.63230606       0.00000000      35.58405188      -0.00344585      -0.00000000       0.06151408
Fe       0.81628135       1.99980938      36.74411392      -0.00327586       0.00000000       0.02896267
Fe       0.00001790      -0.00000000      37.90629567      -0.00019038      -0.00000000       0.00645278
Fe       1.63280628       1.99980938      39.06857682      -0.00086353       0.00000000       0.00320724
Fe       0.81644161      -0.00000000      40.23133244       0.00050329      -0.00000000       0.00251369
Fe       0.00001579       1.99980938      41.39401162       0.00020220       0.00000000      -0.00100936
Fe       1.63278220      -0.00000000      42.55656326      -0.00071689       0.00000000      -0.01086657
Fe       0.81656956       1.99980938      43.71865833      -0.00182361      -0.00000000      -0.03055175
Fe       0.00003737      -0.00000000      44.88013252      -0.00286865       0.00000000      -0.03329885
Fe       1.63280682       1.99980938      46.03518086       0.00685286       0.00000000       0.02346596
Fe       0.81450385      -0.00000000      47.19707624       0.02707354      -0.00000000       0.06075605
Fe       0.00610215       1.99980938      48.38403119       0.02447049       0.00000000      -0.11661926
Fe       1.66010271      -0.00000000      49.57039257       0.12497638      -0.00000000       0.01626719
Fe       0.78444851       1.99980938      50.65260186      -0.18148255      -0.00000000      -0.02806948
36
Lattice="2.44925628 0.0 0.0 0.0 3.99961876 0.0 0.0 0.0 60.69585207619453" Properties=species:S:1:pos:R:3:forces:R:3 energy=-293.0752370984808 stresses="_JSON [0.0023760197002039222, 0.0026117892657988293, 0.0022256056848724455, 7.842376361158677e-18, -5.981768420557928e-06, -8.775992594629948e-18]" pbc="T T T"
Fe      -0.05629696      -0.00000000      10.05914293      -0.11093244       0.00000000      -0.09439672
Fe       0.86214250       1.99980938      11.11233506       0.05074596      -0.00000000       0.09440702
Fe       1.64279424      -0.00000000      12.31676381       0.00505773       0.00000000       0.13036782
Fe      -0.00044234       1.99980938      13.49721788       0.04695422       0.00000000      -0.04778497
Fe       0.81691832      -0.00000000      14.66178862       0.00710771      -0.00000000      -0.01492661
Fe       1.63265020       1.99980938      15.81906675       0.00046216       0.00000000       0.00475780
Fe       0.00004701      -0.00000000      16.97989542      -0.00058910       0.00000000       0.01468720
Fe       0.81629406       1.99980938      18.14016874      -0.00145301      -0.00000000       0.01804012
Fe       1.63287160      -0.00000000      19.30193485      -0.00047451       0.00000000       0.01076053
Fe       0.00004114       1.99980938      20.46436225      -0.00029126      -0.00000000       0.00296125
Fe       0.81646926      -0.00000000      21.62713543      -0.00013693      -0.00000000      -0.00110011
Fe       1.63271124       1.99980938      22.78979916      -0.00044237       0.00000000      -0.01013529
Fe       0.00001055      -0.00000000      23.95169075      -0.00026729      -0.00000000      -0.02797334
Fe       0.81597218       1.99980938      25.11199826      -0.00066902       0.00000000      -0.07182011
Fe       1.63188446      -0.00000000      26.26861287      -0.00769687      -0.00000000      -0.08492355
Fe      -0.00467393       1.99980938      27.41756871      -0.01412081      -0.00000000      -0.04913289
Fe       0.81782907      -0.00000000      28.57533747      -0.03336474       0.00000000      -0.04771261
Fe       1.60560115       1.99980938      29.70322384       0.03611049       0.00000000       0.16523951
Fe       0.06542789      -0.00000000      30.92929548       0.04800008      -0.00000000       0.00000022
Fe       1.60560117       1.99980938      32.15536693       0.03611023       0.00000000      -0.16525069
Fe       0.81782896      -0.00000000      33.28325264      -0.03337167      -0.00000000       0.04767705
Fe      -0.00467422       1.99980938      34.44101963      -0.01413189      -0.00000000       0.04906931
Fe       1.63188370      -0.00000000      35.58997501      -0.00770510       0.00000000       0.08495127
Fe       0.81597171       1.99980938      36.74658710      -0.00061163      -0.00000000       0.07215932
Fe       0.00000818      -0.00000000      37.90690862      -0.00014310       0.00000000       0.02864812
Fe       1.63272774       1.99980938      39.06884763      -0.00039236      -0.00000000       0.00949805
Fe       0.81649129      -0.00000000      40.23158874      -0.00041683       0.00000000      -0.00260167
Fe       0.00003999       1.99980938      41.39398854      -0.00080360       0.00000000      -0.01110274
Fe       1.63271119      -0.00000000      42.55569748      -0.00139722      -0.00000000      -0.01781191
Fe       0.81646799       1.99980938      43.71596459      -0.00055516       0.00000000      -0.01433475
Fe      -0.00018759      -0.00000000      44.87678834       0.00047797      -0.00000000      -0.00462738
Fe       1.63333737       1.99980938      46.03406448       0.00711407      -0.00000000       0.01498710
Fe       0.81597646      -0.00000000      47.19863461       0.04695476       0.00000000       0.04779535
Fe       0.00995672       1.99980938      48.37908837       0.00505755      -0.00000000      -0.13036452
Fe       1.67856127      -0.00000000      49.58351712       0.05074621      -0.00000000      -0.09440539
Fe       0.76012181       1.99980938      50.63670918      -0.11093223       0.00000000       0.09439819
36
Lattice="2.44925628 0.0 0.0 0.0 3.99961876 0.0 0.0 0.0 60.69585207619453" Properties=species:S:1:pos:R:3:forces:R:3 energy=-293.0815585936572 stresses="_JSON [0.002348262451672471, 0.0026142111951004995, 0.0020526464704062985, 1.4284328372110446e-17, -5.986802315009133e-06, -5.508335777480499e-18]" pbc="T T T"
Fe      -0.06736893      -0.00000000      10.06209575      -0.08019729       0.00000000      -0.10255095
Fe       0.86977920       1.99980938      11.11027648       0.01907594      -0.00000000       0.10889216
Fe       1.64426653      -0.00000000      12.32214568       0.00013882      -0.00000000       0.09089223
Fe       0.00116256       1.99980938      13.49500958       0.05012157       0.00000000      -0.01550028
Fe       0.81728771      -0.00000000      14.66142735       0.00655281      -0.00000000       0.00652026
Fe       1.63255244       1.99980938      15.82056692       0.00331543       0.00000000      -0.01181873
Fe      -0.00002053      -0.00000000      16.98134586       0.00055106       0.00000000       0.00242331
Fe       0.81624045       1.99980938      18.14087239      -0.00163771      -0.00000000       0.01832295
Fe       1.63287269      -0.00000000      19.30215331      -0.00082268      -0.00000000       0.01470572
Fe       0.00004833       1.99980938      20.46433096      -0.00068510       0.00000000       0.00582705
Fe       0.81648223      -0.00000000      21.62703714      -0.00042665       0.00000000      -0.00160780
Fe       1.63266460       1.99980938      22.78952028       0.00024840      -0.00000000      -0.01656566
Fe       0.00000072      -0.00000000      23.95096715      -0.00030710       0.00000000      -0.04110304
Fe       0.81582513       1.99980938      25.10970576       0.00014069       0.00000000      -0.08530472
Fe       1.63159096       0.00000000      26.26467623      -0.01053784      -0.00000000      -0.08515498
Fe      -0.00552688       1.99980938      27.40976528      -0.01719306       0.00000000       0.02559571
Fe       0.81656347       0.00000000      28.56871113      -0.02804332      -0.00000000      -0.00250756
Fe       1.60387037       1.99980938      29.70900929       0.04787177      -0.00000000       0.04852636
Fe       0.07449325      -0.00000000      30.92929552       0.02366748       0.00000000      -0.00000484
Fe       1.60387039       1.99980938      32.14958130       0.04787078       0.00000000      -0.04855031
Fe       0.81656320      -0.00000000      33.28987811      -0.02805282      -0.00000000       0.00246474
Fe      -0.00552749       1.99980938      34.44882105      -0.01720230       0.00000000      -0.02563299
Fe       1.63158979      -0.00000000      35.59391121      -0.01053384      -0.00000000       0.08526785
Fe       0.81582562       1.99980938      36.74888456       0.00022112       0.00000000       0.08573170
Fe       0.00000006      -0.00000000      37.90764842      -0.00015050       0.00000000       0.04164667
Fe       1.63268724       1.99980938      39.06913202       0.00019692      -0.00000000       0.01494221
Fe       0.81650562      -0.00000000      40.23165609      -0.00094568       0.00000000      -0.00420057
Fe       0.00003652       1.99980938      41.39378509      -0.00125855      -0.00000000      -0.01490715
Fe       1.63265821      -0.00000000      42.55500293      -0.00158815      -0.00000000      -0.01814567
Fe       0.81640182       1.99980938      43.71452365       0.00056338      -0.00000000      -0.00208618
Fe      -0.00028514      -0.00000000      44.87529162       0.00334049       0.00000000       0.01198555
Fe       1.63370697       1.99980938      46.03442719       0.00656373      -0.00000000      -0.00641217
Fe       0.81758139      -0.00000000      47.20084323       0.05012424       0.00000000       0.01552974
Fe       0.01142902       1.99980938      48.37370660       0.00013892       0.00000000      -0.09088279
Fe       1.68619799      -0.00000000      49.58557577       0.01907600      -0.00000000      -0.10889057
Fe       0.74904984       1.99980938      50.63375640      -0.08019696       0.00000000       0.10255277
36
Lattice="2.44925628 0.0 0.0 0.0 3.99961876 0.0 0.0 0.0 60.69585207619453" Properties=species:S:1:pos:R:3:forces:R:3 energy=-293.0852047776168 stresses="_JSON [0.0023950782788711416, 0.0027143893786008622, 0.002016979921783106, -1.9605940902896693e-18, -6.001914037893579e-06, -5.134889284091991e-19]" pbc="T T T"
Fe      -0.07458519      -0.00000000      10.06042540      -0.06272073       0.00000000      -0.06815105
Fe       0.87384608       1.99980938      11.11244644       0.00066697      -0.00000000       0.08767928
Fe       1.64496496      -0.00000000      12.32763841       0.00176601      -0.00000000       0.03503616
Fe       0.00319244       1.99980938      13.49300456       0.04605454       0.00000000       0.02001133
Fe       0.81764617      -0.00000000      14.66100471       0.00647795       0.00000000       0.02823167
Fe       1.63255975       1.99980938      15.82118974       0.00610551      -0.00000000      -0.01958561
Fe      -0.00005625      -0.00000000      16.98225483       0.00138792       0.00000000      -0.00563132
Fe       0.81617823       1.99980938      18.14164865      -0.00144005      -0.00000000       0.01463775
Fe       1.63285688      -0.00000000      19.30257402      -0.00097008       0.00000000       0.01516775
Fe       0.00003846       1.99980938      20.46443065      -0.00094826      -0.00000000       0.00710738
Fe       0.81648132      -0.00000000      21.62694143      -0.00054605       0.00000000      -0.00387784
Fe       1.63264387       1.99980938      22.78901056       0.00098915      -0.00000000      -0.02380033
Fe      -0.00001224      -0.00000000      23.94972429      -0.00044984       0.00000000      -0.04987592
Fe       0.81573738       1.99980938      25.10669731      -0.00068848       0.00000000      -0.07982219
Fe       1.63121961       0.00000000      26.26076434      -0.01251407      -0.00000000      -0.07094532
Fe      -0.00628071       1.99980938      27.40571495      -0.01917705       0.00000000       0.06424107
Fe       0.81516379       0.00000000      28.56509556      -0.01759342      -0.00000000       0.02394085
Fe       1.60444034       1.99980938      29.71572011       0.04488675      -0.00000000      -0.06461081
Fe       0.07900556      -0.00000000      30.92929543       0.01742378       0.00000000      -0.00001385
Fe       1.60444034       1.99980938      32.14286985       0.04488444      -0.00000000       0.06457351
Fe       0.81516323      -0.00000000      33.29349234      -0.01760263       0.00000000      -0.02397040
Fe      -0.00628166       1.99980938      34.45286964      -0.01917705      -0.00000000      -0.06420468
Fe       1.63121834      -0.00000000      35.59782539      -0.01248848       0.00000000       0.07115186
Fe       0.81574003       1.99980938      36.75190410      -0.00060937      -0.00000000       0.08010738
Fe      -0.00000892      -0.00000000      37.90890990      -0.00033203      -0.00000000       0.04975339
Fe       1.63266887       1.99980938      39.06961031       0.00082531      -0.00000000       0.02112964
Fe       0.81649502      -0.00000000      40.23161765      -0.00119284       0.00000000      -0.00259014
Fe       0.00000958       1.99980938      41.39337210      -0.00132920       0.00000000      -0.01421148
Fe       1.63259718      -0.00000000      42.55423518      -0.00144121      -0.00000000      -0.01445842
Fe       0.81636704       1.99980938      43.71362640       0.00135216       0.00000000       0.00580519
Fe      -0.00027720       0.00000000      44.87467415       0.00613193      -0.00000000       0.01974032
Fe       1.63406579       1.99980938      46.03485297       0.00649296      -0.00000000      -0.02808080
Fe       0.81961134      -0.00000000      47.20284909       0.04606141       0.00000000      -0.01994987
Fe       0.01212744       1.99980938      48.36821415       0.00176733      -0.00000000      -0.03501220
Fe       1.69026487      -0.00000000      49.58340587       0.00066684       0.00000000      -0.08767577
Fe       0.74183359       1.99980938      50.63542681      -0.06272014      -0.00000000       0.06815350
36
Lattice="2.44925628 0.0 0.0 0.0 3.99961876 0.0 0.0 0.0 60.69585207619453" Properties=species:S:1:pos:R:3:forces:R:3 energy=-293.08737212215607 stresses="_JSON [0.0024289067911023553, 0.0028131913668656976, 0.0020260666705632494, 1.0176416944836854e-17, -6.033232582205884e-06, -1.1763564541738015e-17]" pbc="T T T"
Fe      -0.07930561      -0.00000000      10.05801752      -0.05228863      -0.00000000      -0.03324176
Fe       0.87577146       1.99980938      11.11546706      -0.00983511      -0.00000000       0.06142895
Fe       1.64532635      -0.00000000      12.33119084       0.00489513       0.00000000      -0.00064570
Fe       0.00513355       1.99980938      13.49230917       0.03944406      -0.00000000       0.03990201
Fe       0.81795752      -0.00000000      14.66127876       0.00756810       0.00000000       0.03715484
Fe       1.63268324       1.99980938      15.82112441       0.00800695      -0.00000000      -0.01687280
Fe      -0.00004873      -0.00000000      16.98261005       0.00159640       0.00000000      -0.00647688
Fe       0.81611926       1.99980938      18.14232430      -0.00098120      -0.00000000       0.00954276
Fe       1.63283002      -0.00000000      19.30308089      -0.00091067       0.00000000       0.01257972