2
Lattice="2.87528 0.0 0.0 0.0 2.87528 0.0 0.0 0.0 2.87528" Properties=species:S:1:pos:R:3:initial_magmoms:R:1:forces:R:3 energy=-16.44749267319802 stresses="_JSON [0.044069855486022956, 0.044069855486022984, 0.04406985547158534, -9.341138149280049e-18, -2.3352845373200125e-17, -1.5763170626910084e-17]" pbc="T T T"
Fe       0.00000000       0.00000000       0.00000000       2.30000000       0.00000000      -0.00000000      -0.00000000
Fe       1.43764000       1.43764000       1.43764000       2.30000000      -0.00000000      -0.00000000       0.00000000
