2
Lattice="3.2828 0.0 0.0 0.0 3.2828 0.0 0.0 0.0 3.2828" Properties=species:S:1:pos:R:3:initial_magmoms:R:1:forces:R:3 energy=-14.886228597174204 stresses="_JSON [0.16916901059708742, 0.16916898955044019, 0.16916900503455837, -1.303033506458825e-09, 1.3947455546038651e-08, 1.5165654729658873e-09]" pbc="T T T"
Fe       0.00057619      -0.00016039       0.00075132       2.30000000       0.00107669      -0.00010060      -0.00092511
Fe       1.64316671       1.64112838       1.64112840       2.30000000      -0.00107669       0.00010060       0.00092511
2
Lattice="3.2828 0.0 0.0 0.0 3.2828 0.0 0.0 0.0 3.2828" Properties=species:S:1:pos:R:3:initial_magmoms:R:1:forces:R:3 energy=-14.886228597174203 stresses="_JSON [0.16916901059708742, 0.16916898955044019, 0.1691690050345584, -1.303033512735172e-09, 1.394745553662413e-08, 1.5165654384459783e-09]" pbc="T T T"
Fe       0.00057619      -0.00016039       0.00075132       2.30000000       0.00107669      -0.00010060      -0.00092511
Fe       1.64316671       1.64112838       1.64112840       2.30000000      -0.00107669       0.00010060       0.00092511
2
Lattice="3.2828 0.0 0.0 0.0 3.2828 0.0 0.0 0.0 3.2828" Properties=species:S:1:pos:R:3:initial_magmoms:R:1:forces:R:3 energy=-14.886228597174203 stresses="_JSON [0.16916901059708747, 0.1691689895504402, 0.16916900503455845, -1.3030335809904464e-09, 1.3947455495827873e-08, 1.5165654353078048e-09]" pbc="T T T"
Fe       0.00057619      -0.00016039       0.00075132       2.30000000       0.00107669      -0.00010060      -0.00092511
Fe       1.64316671       1.64112838       1.64112840       2.30000000      -0.00107669       0.00010060       0.00092511
2
Lattice="3.2828 0.0 0.0 0.0 3.2828 0.0 0.0 0.0 3.2828" Properties=species:S:1:pos:R:3:initial_magmoms:R:1:forces:R:3 energy=-14.886228597174204 stresses="_JSON [0.16916901059708728, 0.16916898955044007, 0.16916900503455826, -1.3030335535314281e-09, 1.3947455537408673e-08, 1.5165655169003168e-09]" pbc="T T T"
Fe       0.00057619      -0.00016039       0.00075132       2.30000000       0.00107669      -0.00010060      -0.00092511
Fe       1.64316671       1.64112838       1.64112840       2.30000000      -0.00107669       0.00010060       0.00092511
2
Lattice="3.2828 0.0 0.0 0.0 3.2828 0.0 0.0 0.0 3.2828" Properties=species:S:1:pos:R:3:initial_magmoms:R:1:forces:R:3 energy=-14.886228597174204 stresses="_JSON [0.16916901059708742, 0.16916898955044019, 0.1691690050345584, -1.3030335645150354e-09, 1.3947455522502349e-08, 1.5165654917949284e-09]" pbc="T T T"
Fe       0.00057619      -0.00016039       0.00075132       2.30000000       0.00107669      -0.00010060      -0.00092511
Fe       1.64316671       1.64112838       1.64112840       2.30000000      -0.00107669       0.00010060       0.00092511
2
Lattice="3.2828 0.0 0.0 0.0 3.2828 0.0 0.0 0.0 3.2828" Properties=species:S:1:pos:R:3:initial_magmoms:R:1:forces:R:3 energy=-14.886228597174203 stresses="_JSON [0.1691690105970874, 0.16916898955044016, 0.16916900503455834, -1.3030335872667935e-09, 1.394745547386066e-08, 1.5165654761040608e-09]" pbc="T T T"
Fe       0.00057619      -0.00016039       0.00075132       2.30000000       0.00107669      -0.00010060      -0.00092511
Fe       1.64316671       1.64112838       1.64112840       2.30000000      -0.00107669       0.00010060       0.00092511
2
Lattice="3.2828 0.0 0.0 0.0 3.2828 0.0 0.0 0.0 3.2828" Properties=species:S:1:pos:R:3:initial_magmoms:R:1:forces:R:3 energy=-14.886228597174204 stresses="_JSON [0.16916901059708742, 0.1691689895504402, 0.1691690050345584, -1.3030335150888022e-09, 1.3947455524855979e-08, 1.5165654698277137e-09]" pbc="T T T"
Fe       0.00057619      -0.00016039       0.00075132       2.30000000       0.00107669      -0.00010060      -0.00092511
Fe       1.64316671       1.64112838       1.64112840       2.30000000      -0.00107669       0.00010060       0.00092511
2
Lattice="3.2828 0.0 0.0 0.0 3.2828 0.0 0.0 0.0 3.2828" Properties=species:S:1:pos:R:3:initial_magmoms:R:1:forces:R:3 energy=-14.886228597174204 stresses="_JSON [0.1691690105970874, 0.16916898955044019, 0.16916900503455834, -1.303033567653209e-09, 1.3947455505242395e-08, 1.5165654321696312e-09]" pbc="T T T"
Fe       0.00057619      -0.00016039       0.00075132       2.30000000       0.00107669      -0.00010060      -0.00092511
Fe       1.64316671       1.64112838       1.64112840       2.30000000      -0.00107669       0.00010060       0.00092511
2
Lattice="3.2828 0.0 0.0 0.0 3.2828 0.0 0.0 0.0 3.2828" Properties=species:S:1:pos:R:3:initial_magmoms:R:1:forces:R:3 energy=-14.886228597174204 stresses="_JSON [0.16916901059708742, 0.16916898955044013, 0.1691690050345583, -1.303033606880378e-09, 1.3947455540546847e-08, 1.516565501209449e-09]" pbc="T T T"
Fe       0.00057619      -0.00016039       0.00075132       2.30000000       0.00107669      -0.00010060      -0.00092511
Fe       1.64316671       1.64112838       1.64112840       2.30000000      -0.00107669       0.00010060       0.00092511
2
Lattice="3.2828 0.0 0.0 0.0 3.2828 0.0 0.0 0.0 3.2828" Properties=species:S:1:pos:R:3:initial_magmoms:R:1:forces:R:3 energy=-14.886228597174204 stresses="_JSON [0.16916901059708742, 0.1691689895504402, 0.1691690050345584, -1.3030335221496927e-09, 1.3947455557806801e-08, 1.5165654666895402e-09]" pbc="T T T"
Fe       0.00057619      -0.00016039       0.00075132       2.30000000       0.00107669      -0.00010060      -0.00092511
Fe       1.64316671       1.64112838       1.64112840       2.30000000      -0.00107669       0.00010060       0.00092511
2
Lattice="3.0564000000000004 0.0 0.0 0.0 3.0564000000000004 0.0 0.0 0.0 3.0564000000000004" Properties=species:S:1:pos:R:3:initial_magmoms:R:1:forces:R:3 energy=-15.981112608833865 stresses="_JSON [0.1372385727152647, 0.13723830588812316, 0.13723850224853537, 5.9295593850788944e-09, -6.346754206591776e-08, -6.901211510828529e-09]" pbc="T T T"
Fe       0.00053645      -0.00014933       0.00069950       2.30000000       0.00417746      -0.00039030      -0.00358934
Fe       1.52984487       1.52794711       1.52794713       2.30000000      -0.00417746       0.00039030       0.00358934
2
Lattice="3.2828 0.0 0.0 0.0 3.2828 0.0 0.0 0.0 3.2828" Properties=species:S:1:pos:R:3:initial_magmoms:R:1:forces:R:3 energy=-14.886228597174204 stresses="_JSON [0.16916901059708747, 0.16916898955044027, 0.1691690050345584, -1.3030335370560169e-09, 1.3947455506026938e-08, 1.5165654447223253e-09]" pbc="T T T"
Fe       0.00057619      -0.00016039       0.00075132       2.30000000       0.00107669      -0.00010060      -0.00092511
Fe       1.64316671       1.64112838       1.64112840       2.30000000      -0.00107669       0.00010060       0.00092511
2
Lattice="3.2828 0.0 0.0 0.0 3.2828 0.0 0.0 0.0 3.2828" Properties=species:S:1:pos:R:3:initial_magmoms:R:1:forces:R:3 energy=-14.886228597174204 stresses="_JSON [0.16916901059708736, 0.16916898955044007, 0.1691690050345583, -1.3030335174424324e-09, 1.3947455500535135e-08, 1.5165655106239696e-09]" pbc="T T T"
Fe       0.00057619      -0.00016039       0.00075132       2.30000000       0.00107669      -0.00010060      -0.00092511
Fe       1.64316671       1.64112838       1.64112840       2.30000000      -0.00107669       0.00010060       0.00092511
2
Lattice="3.0564000000000004 0.0 0.0 0.0 3.0564000000000004 0.0 0.0 0.0 3.0564000000000004" Properties=species:S:1:pos:R:3:initial_magmoms:R:1:forces:R:3 energy=-15.981112608833866 stresses="_JSON [0.13723857271526468, 0.13723830588812308, 0.13723850224853532, 5.92955939480009e-09, -6.346754205230809e-08, -6.901211514717008e-09]" pbc="T T T"
Fe       0.00053645      -0.00014933       0.00069950       2.30000000       0.00417746      -0.00039030      -0.00358934
Fe       1.52984487       1.52794711       1.52794713       2.30000000      -0.00417746       0.00039030       0.00358934
2
Lattice="3.0564000000000004 0.0 0.0 0.0 3.0564000000000004 0.0 0.0 0.0 3.0564000000000004" Properties=species:S:1:pos:R:3:initial_magmoms:R:1:forces:R:3 energy=-15.981112608833866 stresses="_JSON [0.13723857271526474, 0.13723830588812316, 0.13723850224853537, 5.929559373413461e-09, -6.346754204550325e-08, -6.901211510828529e-09]" pbc="T T T"
Fe       0.00053645      -0.00014933       0.00069950       2.30000000       0.00417746      -0.00039030      -0.00358934
Fe       1.52984487       1.52794711       1.52794713       2.30000000      -0.00417746       0.00039030       0.00358934
2
Lattice="2.87528 0.0 0.0 0.0 2.87528 0.0 0.0 0.0 2.87528" Properties=species:S:1:pos:R:3:initial_magmoms:R:1:forces:R:3 energy=-16.44749267319802 stresses="_JSON [0.044069855486022956, 0.044069855486023046, 0.0440698554715854, 4.6705690746400245e-18, -2.3352845373200122e-18, -1.517934949258008e-17]" pbc="T T T"
Fe       0.00000000       0.00000000       0.00000000       2.30000000       0.00000000       0.00000000       0.00000000
Fe       1.43764000       1.43764000       1.43764000       2.30000000      -0.00000000      -0.00000000      -0.00000000
2
Lattice="2.87528 0.0 0.0 0.0 2.87528 0.0 0.0 0.0 2.87528" Properties=species:S:1:pos:R:3:initial_magmoms:R:1:forces:R:3 energy=-16.44749267319802 stresses="_JSON [0.04406985548602291, 0.044069855486022956, 0.044069855471585255, -9.341138149280049e-18, -4.086747940310022e-18, -1.5763170626910084e-17]" pbc="T T T"
Fe       0.00000000       0.00000000       0.00000000       2.30000000      -0.00000000      -0.00000000       0.00000000
Fe       1.43764000       1.43764000       1.43764000       2.30000000       0.00000000      -0.00000000      -0.00000000
2
Lattice="2.87528 0.0 0.0 0.0 2.87528 0.0 0.0 0.0 2.87528" Properties=species:S:1:pos:R:3:initial_magmoms:R:1:forces:R:3 energy=-16.44749267319802 stresses="_JSON [0.044069855486022956, 0.044069855486022984, 0.04406985547158534, -9.341138149280049e-18, -2.3352845373200125e-17, -1.5763170626910084e-17]" pbc="T T T"
Fe       0.00000000       0.00000000       0.00000000       2.30000000       0.00000000      -0.00000000      -0.00000000
Fe       1.43764000       1.43764000       1.43764000       2.30000000      -0.00000000      -0.00000000       0.00000000
