2
Lattice="2.83 0.0 0.0 0.0 2.83 0.0 0.0 0.0 2.83" Properties=species:S:1:pos:R:3:initial_magmoms:R:1:forces:R:3 energy=-16.47457531882148 stresses="_JSON [0.002118613347254797, 0.0021186133472546466, 0.0021186133297436604, -1.4695087553768997e-17, -1.4695087553768997e-17, -3.0614765737018744e-18]" pbc="T T T"
Fe       0.00000000       0.00000000       0.00000000       2.30000000      -0.00000000       0.00000000      -0.00000000
Fe       1.41500000       1.41500000       1.41500000       2.30000000       0.00000000      -0.00000000       0.00000000
