2
Lattice="2.83 0.0 0.0 0.0 2.83 0.0 0.0 0.0 2.83" Properties=species:S:1:pos:R:3:initial_magmoms:R:1:forces:R:3 energy=-16.474566754500778 stresses="_JSON [0.0021183182967627564, 0.002117493507194745, 0.0021181004887209547, -1.7134947738594738e-09, 1.833617022056018e-08, 1.994152645701021e-09]" pbc="T T T"
Fe       0.00049671      -0.00013826       0.00064769       2.30000000       0.00955327      -0.00089257      -0.00820831
Fe       1.41652303       1.41476585       1.41476586       2.30000000      -0.00955327       0.00089257       0.00820831
2
Lattice="2.83 0.0 0.0 0.0 2.83 0.0 0.0 0.0 2.83" Properties=species:S:1:pos:R:3:initial_magmoms:R:1:forces:R:3 energy=-16.474570704126037 stresses="_JSON [0.0021184543663368208, 0.0021180099445115134, 0.002118336996743091, -9.230862263778136e-10, 9.878882383386712e-09, 1.0743067338878478e-09]" pbc="T T T"
Fe       0.00063319      -0.00015102       0.00053043       2.30000000       0.00701259      -0.00065519      -0.00602532
Fe       1.41638655       1.41477860       1.41488312       2.30000000      -0.00701259       0.00065519       0.00602532
2
Lattice="2.83 0.0 0.0 0.0 2.83 0.0 0.0 0.0 2.83" Properties=species:S:1:pos:R:3:initial_magmoms:R:1:forces:R:3 energy=-16.474566754500778 stresses="_JSON [0.0021183182967625313, 0.0021174935071946203, 0.002118100488720935, -1.7134947786047624e-09, 1.8336170253624128e-08, 1.9941526913170216e-09]" pbc="T T T"
Fe       0.00049671      -0.00013826       0.00064769       2.30000000       0.00955327      -0.00089257      -0.00820831
Fe       1.41652303       1.41476585       1.41476586       2.30000000      -0.00955327       0.00089257       0.00820831
2
Lattice="2.83 0.0 0.0 0.0 2.83 0.0 0.0 0.0 2.83" Properties=species:S:1:pos:R:3:initial_magmoms:R:1:forces:R:3 energy=-16.474570704126037 stresses="_JSON [0.00211845436633673, 0.002118009944511614, 0.002118336996742918, -9.230862211733034e-10, 9.87888237420228e-09, 1.0743067308263713e-09]" pbc="T T T"
Fe       0.00063319      -0.00015102       0.00053043       2.30000000       0.00701259      -0.00065519      -0.00602532
Fe       1.41638655       1.41477860       1.41488312       2.30000000      -0.00701259       0.00065519       0.00602532
2
Lattice="2.83 0.0 0.0 0.0 2.83 0.0 0.0 0.0 2.83" Properties=species:S:1:pos:R:3:initial_magmoms:R:1:forces:R:3 energy=-16.474566754500774 stresses="_JSON [0.0021183182967627174, 0.0021174935071948263, 0.0021181004887209586, -1.7134948185570318e-09, 1.8336170218723297e-08, 1.9941526656006187e-09]" pbc="T T T"
Fe       0.00049671      -0.00013826       0.00064769       2.30000000       0.00955327      -0.00089257      -0.00820831
Fe       1.41652303       1.41476585       1.41476586       2.30000000      -0.00955327       0.00089257       0.00820831
2
Lattice="2.83 0.0 0.0 0.0 2.83 0.0 0.0 0.0 2.83" Properties=species:S:1:pos:R:3:initial_magmoms:R:1:forces:R:3 energy=-16.474570704126037 stresses="_JSON [0.0021184543663367397, 0.002118009944511413, 0.002118336996743114, -9.230862104581354e-10, 9.878882383999006e-09, 1.0743067338878478e-09]" pbc="T T T"
Fe       0.00063319      -0.00015102       0.00053043       2.30000000       0.00701259      -0.00065519      -0.00602532
Fe       1.41638655       1.41477860       1.41488312       2.30000000      -0.00701259       0.00065519       0.00602532
2
Lattice="2.83 0.0 0.0 0.0 2.83 0.0 0.0 0.0 2.83" Properties=species:S:1:pos:R:3:initial_magmoms:R:1:forces:R:3 energy=-16.474566754500774 stresses="_JSON [0.0021183182967627074, 0.002117493507194514, 0.0021181004887209157, -1.713494796973622e-09, 1.833617025974708e-08, 1.9941526603961083e-09]" pbc="T T T"
Fe       0.00049671      -0.00013826       0.00064769       2.30000000       0.00955327      -0.00089257      -0.00820831
Fe       1.41652303       1.41476585       1.41476586       2.30000000      -0.00955327       0.00089257       0.00820831
2
Lattice="2.83 0.0 0.0 0.0 2.83 0.0 0.0 0.0 2.83" Properties=species:S:1:pos:R:3:initial_magmoms:R:1:forces:R:3 energy=-16.474570704126037 stresses="_JSON [0.0021184543663368915, 0.002118009944511549, 0.0021183369967431483, -9.230862168872362e-10, 9.878882382774416e-09, 1.074306721335794e-09]" pbc="T T T"
Fe       0.00063319      -0.00015102       0.00053043       2.30000000       0.00701259      -0.00065519      -0.00602532
Fe       1.41638655       1.41477860       1.41488312       2.30000000      -0.00701259       0.00065519       0.00602532
2
Lattice="2.83 0.0 0.0 0.0 2.83 0.0 0.0 0.0 2.83" Properties=species:S:1:pos:R:3:initial_magmoms:R:1:forces:R:3 energy=-16.474566754500774 stresses="_JSON [0.0021183182967626584, 0.0021174935071946914, 0.002118100488721042, -1.7134947810539437e-09, 1.8336170227907725e-08, 1.9941526922354647e-09]" pbc="T T T"
Fe       0.00049671      -0.00013826       0.00064769       2.30000000       0.00955327      -0.00089257      -0.00820831
Fe       1.41652303       1.41476585       1.41476586       2.30000000      -0.00955327       0.00089257       0.00820831
2
Lattice="2.83 0.0 0.0 0.0 2.83 0.0 0.0 0.0 2.83" Properties=species:S:1:pos:R:3:initial_magmoms:R:1:forces:R:3 energy=-16.474570704126037 stresses="_JSON [0.0021184543663366542, 0.0021180099445113347, 0.0021183369967430112, -9.2308622423478e-10, 9.878882369916215e-09, 1.07430671398825e-09]" pbc="T T T"
Fe       0.00063319      -0.00015102       0.00053043       2.30000000       0.00701259      -0.00065519      -0.00602532
Fe       1.41638655       1.41477860       1.41488312       2.30000000      -0.00701259       0.00065519       0.00602532
2
Lattice="2.83 0.0 0.0 0.0 2.83 0.0 0.0 0.0 2.83" Properties=species:S:1:pos:R:3:initial_magmoms:R:1:forces:R:3 energy=-16.474566754500778 stresses="_JSON [0.0021183182967627295, 0.002117493507194558, 0.002118100488720764, -1.7134947845746418e-09, 1.8336170233418382e-08, 1.9941526766219343e-09]" pbc="T T T"
Fe       0.00049671      -0.00013826       0.00064769       2.30000000       0.00955327      -0.00089257      -0.00820831
Fe       1.41652303       1.41476585       1.41476586       2.30000000      -0.00955327       0.00089257       0.00820831
2
Lattice="2.83 0.0 0.0 0.0 2.83 0.0 0.0 0.0 2.83" Properties=species:S:1:pos:R:3:initial_magmoms:R:1:forces:R:3 energy=-16.474570704126037 stresses="_JSON [0.002118454366336696, 0.0021180099445113247, 0.0021183369967430025, -9.230862292862164e-10, 9.878882369916215e-09, 1.0743067225603846e-09]" pbc="T T T"
Fe       0.00063319      -0.00015102       0.00053043       2.30000000       0.00701259      -0.00065519      -0.00602532
Fe       1.41638655       1.41477860       1.41488312       2.30000000      -0.00701259       0.00065519       0.00602532
2
Lattice="2.83 0.0 0.0 0.0 2.83 0.0 0.0 0.0 2.83" Properties=species:S:1:pos:R:3:initial_magmoms:R:1:forces:R:3 energy=-16.474566754500778 stresses="_JSON [0.0021183182967628865, 0.002117493507194699, 0.002118100488720956, -1.7134947939121454e-09, 1.8336170253011832e-08, 1.9941526570284844e-09]" pbc="T T T"
Fe       0.00049671      -0.00013826       0.00064769       2.30000000       0.00955327      -0.00089257      -0.00820831
Fe       1.41652303       1.41476585       1.41476586       2.30000000      -0.00955327       0.00089257       0.00820831
2
Lattice="2.83 0.0 0.0 0.0 2.83 0.0 0.0 0.0 2.83" Properties=species:S:1:pos:R:3:initial_magmoms:R:1:forces:R:3 energy=-16.474570704126037 stresses="_JSON [0.002118454366336943, 0.002118009944511506, 0.0021183369967430555, -9.230862311231022e-10, 9.878882377876053e-09, 1.0743067256218611e-09]" pbc="T T T"
Fe       0.00063319      -0.00015102       0.00053043       2.30000000       0.00701259      -0.00065519      -0.00602532
Fe       1.41638655       1.41477860       1.41488312       2.30000000      -0.00701259       0.00065519       0.00602532
2
Lattice="2.83 0.0 0.0 0.0 2.83 0.0 0.0 0.0 2.83" Properties=species:S:1:pos:R:3:initial_magmoms:R:1:forces:R:3 energy=-16.474566754500778 stresses="_JSON [0.002118318296762624, 0.002117493507194596, 0.002118100488720814, -1.7134948067703469e-09, 1.833617022729543e-08, 1.9941526695805383e-09]" pbc="T T T"
Fe       0.00049671      -0.00013826       0.00064769       2.30000000       0.00955327      -0.00089257      -0.00820831
Fe       1.41652303       1.41476585       1.41476586       2.30000000      -0.00955327       0.00089257       0.00820831
2
Lattice="2.83 0.0 0.0 0.0 2.83 0.0 0.0 0.0 2.83" Properties=species:S:1:pos:R:3:initial_magmoms:R:1:forces:R:3 energy=-16.474570704126034 stresses="_JSON [0.0021184543663368134, 0.0021180099445114913, 0.002118336996743022, -9.230862222448202e-10, 9.878882367467034e-09, 1.0743067191927603e-09]" pbc="T T T"
Fe       0.00063319      -0.00015102       0.00053043       2.30000000       0.00701259      -0.00065519      -0.00602532
Fe       1.41638655       1.41477860       1.41488312       2.30000000      -0.00701259       0.00065519       0.00602532
2
Lattice="2.83 0.0 0.0 0.0 2.83 0.0 0.0 0.0 2.83" Properties=species:S:1:pos:R:3:initial_magmoms:R:1:forces:R:3 energy=-16.474566754500774 stresses="_JSON [0.002118318296762492, 0.002117493507194578, 0.002118100488720977, -1.7134947920752593e-09, 1.833617023647986e-08, 1.994152684887921e-09]" pbc="T T T"
Fe       0.00049671      -0.00013826       0.00064769       2.30000000       0.00955327      -0.00089257      -0.00820831
Fe       1.41652303       1.41476585       1.41476586       2.30000000      -0.00955327       0.00089257       0.00820831
2
Lattice="2.83 0.0 0.0 0.0 2.83 0.0 0.0 0.0 2.83" Properties=species:S:1:pos:R:3:initial_magmoms:R:1:forces:R:3 energy=-16.474570704126037 stresses="_JSON [0.0021184543663368967, 0.0021180099445116444, 0.0021183369967432367, -9.230862210202296e-10, 9.878882389509665e-09, 1.0743067121513642e-09]" pbc="T T T"
Fe       0.00063319      -0.00015102       0.00053043       2.30000000       0.00701259      -0.00065519      -0.00602532
Fe       1.41638655       1.41477860       1.41488312       2.30000000      -0.00701259       0.00065519       0.00602532
2
Lattice="2.83 0.0 0.0 0.0 2.83 0.0 0.0 0.0 2.83" Properties=species:S:1:pos:R:3:initial_magmoms:R:1:forces:R:3 energy=-16.474566754500778 stresses="_JSON [0.0021183182967629013, 0.002117493507194788, 0.0021181004887208996, -1.713494783656199e-09, 1.8336170241378222e-08, 1.994152679377263e-09]" pbc="T T T"
Fe       0.00049671      -0.00013826       0.00064769       2.30000000       0.00955327      -0.00089257      -0.00820831
Fe       1.41652303       1.41476585       1.41476586       2.30000000      -0.00955327       0.00089257       0.00820831
2
Lattice="2.83 0.0 0.0 0.0 2.83 0.0 0.0 0.0 2.83" Properties=species:S:1:pos:R:3:initial_magmoms:R:1:forces:R:3 energy=-16.474570704126037 stresses="_JSON [0.0021184543663368793, 0.002118009944511741, 0.002118336996743059, -9.230862513288477e-10, 9.878882390121959e-09, 1.0743066947009478e-09]" pbc="T T T"
Fe       0.00063319      -0.00015102       0.00053043       2.30000000       0.00701259      -0.00065519      -0.00602532
Fe       1.41638655       1.41477860       1.41488312       2.30000000      -0.00701259       0.00065519       0.00602532
2
Lattice="2.83 0.0 0.0 0.0 2.83 0.0 0.0 0.0 2.83" Properties=species:S:1:pos:R:3:initial_magmoms:R:1:forces:R:3 energy=-16.474566754500778 stresses="_JSON [0.0021183182967627148, 0.002117493507194558, 0.0021181004887209673, -1.7134947778393933e-09, 1.8336170235867565e-08, 1.994152661620699e-09]" pbc="T T T"
Fe       0.00049671      -0.00013826       0.00064769       2.30000000       0.00955327      -0.00089257      -0.00820831
Fe       1.41652303       1.41476585       1.41476586       2.30000000      -0.00955327       0.00089257       0.00820831
2
Lattice="2.83 0.0 0.0 0.0 2.83 0.0 0.0 0.0 2.83" Properties=species:S:1:pos:R:3:initial_magmoms:R:1:forces:R:3 energy=-16.474570704126037 stresses="_JSON [0.002118454366336796, 0.002118009944511441, 0.002118336996743032, -9.230862145911287e-10, 9.878882364405557e-09, 1.07430670878374e-09]" pbc="T T T"
Fe       0.00063319      -0.00015102       0.00053043       2.30000000       0.00701259      -0.00065519      -0.00602532
Fe       1.41638655       1.41477860       1.41488312       2.30000000      -0.00701259       0.00065519       0.00602532
2
Lattice="2.83 0.0 0.0 0.0 2.83 0.0 0.0 0.0 2.83" Properties=species:S:1:pos:R:3:initial_magmoms:R:1:forces:R:3 energy=-16.474566754500778 stresses="_JSON [0.002118318296762781, 0.002117493507194618, 0.0021181004887209157, -1.7134947822785344e-09, 1.8336170221172476e-08, 1.994152680295706e-09]" pbc="T T T"
Fe       0.00049671      -0.00013826       0.00064769       2.30000000       0.00955327      -0.00089257      -0.00820831
Fe       1.41652303       1.41476585       1.41476586       2.30000000      -0.00955327       0.00089257       0.00820831
2
Lattice="2.83 0.0 0.0 0.0 2.83 0.0 0.0 0.0 2.83" Properties=species:S:1:pos:R:3:initial_magmoms:R:1:forces:R:3 energy=-16.474570704126034 stresses="_JSON [0.002118454366336794, 0.0021180099445114314, 0.00211833699674319, -9.230862191833436e-10, 9.878882383386712e-09, 1.0743067075591495e-09]" pbc="T T T"
Fe       0.00063319      -0.00015102       0.00053043       2.30000000       0.00701259      -0.00065519      -0.00602532
Fe       1.41638655       1.41477860       1.41488312       2.30000000      -0.00701259       0.00065519       0.00602532
2
Lattice="2.83 0.0 0.0 0.0 2.83 0.0 0.0 0.0 2.83" Properties=species:S:1:pos:R:3:initial_magmoms:R:1:forces:R:3 energy=-16.474566754500774 stresses="_JSON [0.0021183182967626684, 0.002117493507194678, 0.0021181004887209512, -1.7134947880953398e-09, 1.833617022607084e-08, 1.9941526548854505e-09]" pbc="T T T"
Fe       0.00049671      -0.00013826       0.00064769       2.30000000       0.00955327      -0.00089257      -0.00820831
Fe       1.41652303       1.41476585       1.41476586       2.30000000      -0.00955327       0.00089257       0.00820831
2
Lattice="2.83 0.0 0.0 0.0 2.83 0.0 0.0 0.0 2.83" Properties=species:S:1:pos:R:3:initial_magmoms:R:1:forces:R:3 energy=-16.474570704126037 stresses="_JSON [0.0021184543663368967, 0.0021180099445115173, 0.0021183369967429522, -9.230862259185921e-10, 9.878882381549825e-09, 1.0743067299079283e-09]" pbc="T T T"
Fe       0.00063319      -0.00015102       0.00053043       2.30000000       0.00701259      -0.00065519      -0.00602532
Fe       1.41638655       1.41477860       1.41488312       2.30000000      -0.00701259       0.00065519       0.00602532
2
Lattice="2.83 0.0 0.0 0.0 2.83 0.0 0.0 0.0 2.83" Properties=species:S:1:pos:R:3:initial_magmoms:R:1:forces:R:3 energy=-16.474566754500774 stresses="_JSON [0.0021183182967628323, 0.002117493507194557, 0.002118100488720994, -1.7134947868707494e-09, 1.83361702315815e-08, 1.9941526631514374e-09]" pbc="T T T"
Fe       0.00049671      -0.00013826       0.00064769       2.30000000       0.00955327      -0.00089257      -0.00820831
Fe       1.41652303       1.41476585       1.41476586       2.30000000      -0.00955327       0.00089257       0.00820831
2
Lattice="2.83 0.0 0.0 0.0 2.83 0.0 0.0 0.0 2.83" Properties=species:S:1:pos:R:3:initial_magmoms:R:1:forces:R:3 energy=-16.474570704126037 stresses="_JSON [0.0021184543663367228, 0.0021180099445114093, 0.0021183369967430273, -9.230862250001491e-10, 9.87888236256867e-09, 1.074306719498908e-09]" pbc="T T T"
Fe       0.00063319      -0.00015102       0.00053043       2.30000000       0.00701259      -0.00065519      -0.00602532
Fe       1.41638655       1.41477860       1.41488312       2.30000000      -0.00701259       0.00065519       0.00602532
2
Lattice="2.83 0.0 0.0 0.0 2.83 0.0 0.0 0.0 2.83" Properties=species:S:1:pos:R:3:initial_magmoms:R:1:forces:R:3 energy=-16.474566754500778 stresses="_JSON [0.002118318296762781, 0.002117493507194618, 0.0021181004887210306, -1.7134947896260783e-09, 1.833617025117495e-08, 1.994152701726042e-09]" pbc="T T T"
Fe       0.00049671      -0.00013826       0.00064769       2.30000000       0.00955327      -0.00089257      -0.00820831
Fe       1.41652303       1.41476585       1.41476586       2.30000000      -0.00955327       0.00089257       0.00820831
2
Lattice="2.83 0.0 0.0 0.0 2.83 0.0 0.0 0.0 2.83" Properties=species:S:1:pos:R:3:initial_magmoms:R:1:forces:R:3 energy=-16.474570704126037 stresses="_JSON [0.0021184543663367913, 0.0021180099445114926, 0.00211833699674307, -9.230862487265926e-10, 9.878882379100644e-09, 1.0743067026607869e-09]" pbc="T T T"
Fe       0.00063319      -0.00015102       0.00053043       2.30000000       0.00701259      -0.00065519      -0.00602532
Fe       1.41638655       1.41477860       1.41488312       2.30000000      -0.00701259       0.00065519       0.00602532
2
Lattice="2.83 0.0 0.0 0.0 2.83 0.0 0.0 0.0 2.83" Properties=species:S:1:pos:R:3:initial_magmoms:R:1:forces:R:3 energy=-16.47457531882148 stresses="_JSON [0.0021186133472548803, 0.002118613347254868, 0.002118613329743773, 4.898362517922999e-18, 5.8168054900335615e-18, -6.122953147403749e-18]" pbc="T T T"
Fe       0.00000000       0.00000000       0.00000000       2.30000000      -0.00000000      -0.00000000       0.00000000
Fe       1.41500000       1.41500000       1.41500000       2.30000000       0.00000000       0.00000000       0.00000000
2
Lattice="2.83 0.0 0.0 0.0 2.83 0.0 0.0 0.0 2.83" Properties=species:S:1:pos:R:3:initial_magmoms:R:1:forces:R:3 energy=-16.47457531882148 stresses="_JSON [0.0021186133472547043, 0.002118613347254748, 0.002118613329743749, 9.796725035845998e-18, -1.2245906294807497e-18, 3.0614765737018746e-17]" pbc="T T T"
Fe       0.00000000       0.00000000       0.00000000       2.30000000       0.00000000      -0.00000000      -0.00000000
Fe       1.41500000       1.41500000       1.41500000       2.30000000      -0.00000000       0.00000000       0.00000000
2
Lattice="2.83 0.0 0.0 0.0 2.83 0.0 0.0 0.0 2.83" Properties=species:S:1:pos:R:3:initial_magmoms:R:1:forces:R:3 energy=-16.47457531882148 stresses="_JSON [0.002118613347254797, 0.0021186133472546466, 0.0021186133297436604, -1.4695087553768997e-17, -1.4695087553768997e-17, -3.0614765737018744e-18]" pbc="T T T"
Fe       0.00000000       0.00000000       0.00000000       2.30000000      -0.00000000       0.00000000      -0.00000000
Fe       1.41500000       1.41500000       1.41500000       2.30000000       0.00000000      -0.00000000       0.00000000
