2
Lattice="2.81868 0.0 0.0 0.0 2.81868 0.0 0.0 0.0 2.81868" Properties=species:S:1:pos:R:3:initial_magmoms:R:1:forces:R:3 energy=-16.473373557923303 stresses="_JSON [-0.011248199142988883, -0.011248199142988753, -0.011248199161688644, 9.915232529614835e-18, 8.675828463412981e-18, 5.577318297908345e-18]" pbc="T T T"
Fe       0.00000000       0.00000000       0.00000000       2.30000000       0.00000000       0.00000000       0.00000000
Fe       1.40934000       1.40934000       1.40934000       2.30000000      -0.00000000      -0.00000000      -0.00000000
