2
Lattice="2.7168 0.0 0.0 0.0 2.7168 0.0 0.0 0.0 2.7168" Properties=species:S:1:pos:R:3:initial_magmoms:R:1:forces:R:3 energy=-16.24494677201215 stresses="_JSON [-0.2094942043526892, -0.20949529066783962, -0.20949449124359182, -4.2174100818297344e-08, 4.5138150226696616e-07, 4.90840602426364e-08]" pbc="T T T"
Fe       0.00047685      -0.00013273       0.00062178       2.30000000       0.01082919      -0.00101178      -0.00930460
Fe       1.35986211       1.35817521       1.35817523       2.30000000      -0.01082919       0.00101178       0.00930460
2
Lattice="2.7168 0.0 0.0 0.0 2.7168 0.0 0.0 0.0 2.7168" Properties=species:S:1:pos:R:3:initial_magmoms:R:1:forces:R:3 energy=-16.244951706377574 stresses="_JSON [-0.20949457538338948, -0.20949508655327637, -0.20949471040359274, -1.9844104890607124e-08, 2.1239139469651468e-07, 2.309553705944214e-08]" pbc="T T T"
Fe       0.00063155      -0.00014719       0.00048886       2.30000000       0.00742848      -0.00069405      -0.00638266
Fe       1.35970741       1.35818967       1.35830815       2.30000000      -0.00742848       0.00069405       0.00638266
2
Lattice="2.7168 0.0 0.0 0.0 2.7168 0.0 0.0 0.0 2.7168" Properties=species:S:1:pos:R:3:initial_magmoms:R:1:forces:R:3 energy=-16.24494677201215 stresses="_JSON [-0.20949420435268928, -0.20949529066783962, -0.20949449124359204, -4.2174100869510194e-08, 4.5138150235555055e-07, 4.9084060250941184e-08]" pbc="T T T"
Fe       0.00047685      -0.00013273       0.00062178       2.30000000       0.01082919      -0.00101178      -0.00930460
Fe       1.35986211       1.35817521       1.35817523       2.30000000      -0.01082919       0.00101178       0.00930460
2
Lattice="2.7168 0.0 0.0 0.0 2.7168 0.0 0.0 0.0 2.7168" Properties=species:S:1:pos:R:3:initial_magmoms:R:1:forces:R:3 energy=-16.244951706377577 stresses="_JSON [-0.20949457538338967, -0.20949508655327684, -0.2094947104035933, -1.984410495358509e-08, 2.123913946978988e-07, 2.3095537193010796e-08]" pbc="T T T"
Fe       0.00063155      -0.00014719       0.00048886       2.30000000       0.00742848      -0.00069405      -0.00638266
Fe       1.35970741       1.35818967       1.35830815       2.30000000      -0.00742848       0.00069405       0.00638266
2
Lattice="2.7168 0.0 0.0 0.0 2.7168 0.0 0.0 0.0 2.7168" Properties=species:S:1:pos:R:3:initial_magmoms:R:1:forces:R:3 energy=-16.24494677201215 stresses="_JSON [-0.20949420435268903, -0.20949529066783998, -0.20949449124359165, -4.2174100888195966e-08, 4.5138150209533393e-07, 4.9084060129829713e-08]" pbc="T T T"
Fe       0.00047685      -0.00013273       0.00062178       2.30000000       0.01082919      -0.00101178      -0.00930460
Fe       1.35986211       1.35817521       1.35817523       2.30000000      -0.01082919       0.00101178       0.00930460
2
Lattice="2.7168 0.0 0.0 0.0 2.7168 0.0 0.0 0.0 2.7168" Properties=species:S:1:pos:R:3:initial_magmoms:R:1:forces:R:3 energy=-16.244951706377574 stresses="_JSON [-0.20949457538338945, -0.20949508655327628, -0.2094947104035925, -1.984410497227086e-08, 2.1239139464253356e-07, 2.309553705390562e-08]" pbc="T T T"
Fe       0.00063155      -0.00014719       0.00048886       2.30000000       0.00742848      -0.00069405      -0.00638266
Fe       1.35970741       1.35818967       1.35830815       2.30000000      -0.00742848       0.00069405       0.00638266
2
Lattice="2.7168 0.0 0.0 0.0 2.7168 0.0 0.0 0.0 2.7168" Properties=species:S:1:pos:R:3:initial_magmoms:R:1:forces:R:3 energy=-16.24494677201215 stresses="_JSON [-0.20949420435268903, -0.20949529066783976, -0.2094944912435919, -4.2174100791306785e-08, 4.5138150226142963e-07, 4.908406015543614e-08]" pbc="T T T"
Fe       0.00047685      -0.00013273       0.00062178       2.30000000       0.01082919      -0.00101178      -0.00930460
Fe       1.35986211       1.35817521       1.35817523       2.30000000      -0.01082919       0.00101178       0.00930460
2
Lattice="2.7168 0.0 0.0 0.0 2.7168 0.0 0.0 0.0 2.7168" Properties=species:S:1:pos:R:3:initial_magmoms:R:1:forces:R:3 energy=-16.244951706377577 stresses="_JSON [-0.2094945753833898, -0.20949508655327662, -0.20949471040359294, -1.9844104861886403e-08, 2.1239139478648318e-07, 2.3095537152870993e-08]" pbc="T T T"
Fe       0.00063155      -0.00014719       0.00048886       2.30000000       0.00742848      -0.00069405      -0.00638266
Fe       1.35970741       1.35818967       1.35830815       2.30000000      -0.00742848       0.00069405       0.00638266
2
Lattice="2.7168 0.0 0.0 0.0 2.7168 0.0 0.0 0.0 2.7168" Properties=species:S:1:pos:R:3:initial_magmoms:R:1:forces:R:3 energy=-16.24494677201215 stresses="_JSON [-0.20949420435268906, -0.20949529066783945, -0.20949449124359165, -4.217410085082442e-08, 4.5138150232371556e-07, 4.908406017412191e-08]" pbc="T T T"
Fe       0.00047685      -0.00013273       0.00062178       2.30000000       0.01082919      -0.00101178      -0.00930460
Fe       1.35986211       1.35817521       1.35817523       2.30000000      -0.01082919       0.00101178       0.00930460
2
Lattice="2.7168 0.0 0.0 0.0 2.7168 0.0 0.0 0.0 2.7168" Properties=species:S:1:pos:R:3:initial_magmoms:R:1:forces:R:3 energy=-16.244951706377574 stresses="_JSON [-0.2094945753833897, -0.20949508655327698, -0.20949471040359333, -1.9844104936629484e-08, 2.1239139461623506e-07, 2.309553699438798e-08]" pbc="T T T"
Fe       0.00063155      -0.00014719       0.00048886       2.30000000       0.00742848      -0.00069405      -0.00638266
Fe       1.35970741       1.35818967       1.35830815       2.30000000      -0.00742848       0.00069405       0.00638266
2
Lattice="2.7168 0.0 0.0 0.0 2.7168 0.0 0.0 0.0 2.7168" Properties=species:S:1:pos:R:3:initial_magmoms:R:1:forces:R:3 energy=-16.24494677201215 stresses="_JSON [-0.20949420435268906, -0.20949529066784, -0.20949449124359187, -4.217410100723124e-08, 4.513815022766551e-07, 4.9084060289004793e-08]" pbc="T T T"
Fe       0.00047685      -0.00013273       0.00062178       2.30000000       0.01082919      -0.00101178      -0.00930460
Fe       1.35986211       1.35817521       1.35817523       2.30000000      -0.01082919       0.00101178       0.00930460
2
Lattice="2.7168 0.0 0.0 0.0 2.7168 0.0 0.0 0.0 2.7168" Properties=species:S:1:pos:R:3:initial_magmoms:R:1:forces:R:3 energy=-16.244951706377574 stresses="_JSON [-0.20949457538338948, -0.20949508655327712, -0.20949471040359302, -1.9844104972616893e-08, 2.1239139461069854e-07, 2.3095536962552963e-08]" pbc="T T T"
Fe       0.00063155      -0.00014719       0.00048886       2.30000000       0.00742848      -0.00069405      -0.00638266
Fe       1.35970741       1.35818967       1.35830815       2.30000000      -0.00742848       0.00069405       0.00638266
2
Lattice="2.7168 0.0 0.0 0.0 2.7168 0.0 0.0 0.0 2.7168" Properties=species:S:1:pos:R:3:initial_magmoms:R:1:forces:R:3 energy=-16.24494677201215 stresses="_JSON [-0.20949420435268915, -0.20949529066783992, -0.20949449124359198, -4.217410095567236e-08, 4.5138150229603294e-07, 4.908406018657909e-08]" pbc="T T T"
Fe       0.00047685      -0.00013273       0.00062178       2.30000000       0.01082919      -0.00101178      -0.00930460
Fe       1.35986211       1.35817521       1.35817523       2.30000000      -0.01082919       0.00101178       0.00930460
2
Lattice="2.7168 0.0 0.0 0.0 2.7168 0.0 0.0 0.0 2.7168" Properties=species:S:1:pos:R:3:initial_magmoms:R:1:forces:R:3 energy=-16.244951706377574 stresses="_JSON [-0.20949457538338948, -0.2094950865532768, -0.20949471040359263, -1.984410495981368e-08, 2.1239139467021618e-07, 2.309553701791821e-08]" pbc="T T T"
Fe       0.00063155      -0.00014719       0.00048886       2.30000000       0.00742848      -0.00069405      -0.00638266
Fe       1.35970741       1.35818967       1.35830815       2.30000000      -0.00742848       0.00069405       0.00638266
2
Lattice="2.7168 0.0 0.0 0.0 2.7168 0.0 0.0 0.0 2.7168" Properties=species:S:1:pos:R:3:initial_magmoms:R:1:forces:R:3 energy=-16.24494677201215 stresses="_JSON [-0.2094942043526889, -0.20949529066783998, -0.20949449124359235, -4.217410088127531e-08, 4.513815021783818e-07, 4.908406025509358e-08]" pbc="T T T"
Fe       0.00047685      -0.00013273       0.00062178       2.30000000       0.01082919      -0.00101178      -0.00930460
Fe       1.35986211       1.35817521       1.35817523       2.30000000      -0.01082919       0.00101178       0.00930460
2
Lattice="2.7168 0.0 0.0 0.0 2.7168 0.0 0.0 0.0 2.7168" Properties=species:S:1:pos:R:3:initial_magmoms:R:1:forces:R:3 energy=-16.244951706377574 stresses="_JSON [-0.2094945753833896, -0.20949508655327645, -0.20949471040359294, -1.984410487261342e-08, 2.1239139466052726e-07, 2.3095537061518337e-08]" pbc="T T T"
Fe       0.00063155      -0.00014719       0.00048886       2.30000000       0.00742848      -0.00069405      -0.00638266
Fe       1.35970741       1.35818967       1.35830815       2.30000000      -0.00742848       0.00069405       0.00638266
2
Lattice="2.7168 0.0 0.0 0.0 2.7168 0.0 0.0 0.0 2.7168" Properties=species:S:1:pos:R:3:initial_magmoms:R:1:forces:R:3 energy=-16.244946772012153 stresses="_JSON [-0.20949420435268912, -0.2094952906678398, -0.20949449124359154, -4.217410085532285e-08, 4.513815021797659e-07, 4.9084060207341057e-08]" pbc="T T T"
Fe       0.00047685      -0.00013273       0.00062178       2.30000000       0.01082919      -0.00101178      -0.00930460
Fe       1.35986211       1.35817521       1.35817523       2.30000000      -0.01082919       0.00101178       0.00930460
2
Lattice="2.7168 0.0 0.0 0.0 2.7168 0.0 0.0 0.0 2.7168" Properties=species:S:1:pos:R:3:initial_magmoms:R:1:forces:R:3 energy=-16.244951706377574 stresses="_JSON [-0.2094945753833893, -0.2094950865532766, -0.20949471040359272, -1.9844104657035e-08, 2.1239139441415193e-07, 2.3095536751472968e-08]" pbc="T T T"
Fe       0.00063155      -0.00014719       0.00048886       2.30000000       0.00742848      -0.00069405      -0.00638266
Fe       1.35970741       1.35818967       1.35830815       2.30000000      -0.00742848       0.00069405       0.00638266
2
Lattice="2.7168 0.0 0.0 0.0 2.7168 0.0 0.0 0.0 2.7168" Properties=species:S:1:pos:R:3:initial_magmoms:R:1:forces:R:3 energy=-16.24494677201215 stresses="_JSON [-0.20949420435268867, -0.2094952906678398, -0.20949449124359146, -4.217410077192895e-08, 4.513815022462042e-07, 4.908406023017922e-08]" pbc="T T T"
Fe       0.00047685      -0.00013273       0.00062178       2.30000000       0.01082919      -0.00101178      -0.00930460
Fe       1.35986211       1.35817521       1.35817523       2.30000000      -0.01082919       0.00101178       0.00930460
2
Lattice="2.7168 0.0 0.0 0.0 2.7168 0.0 0.0 0.0 2.7168" Properties=species:S:1:pos:R:3:initial_magmoms:R:1:forces:R:3 energy=-16.244951706377574 stresses="_JSON [-0.20949457538339036, -0.20949508655327737, -0.2094947104035939, -1.9844104757384504e-08, 2.1239139483908017e-07, 2.309553699577211e-08]" pbc="T T T"
Fe       0.00063155      -0.00014719       0.00048886       2.30000000       0.00742848      -0.00069405      -0.00638266
Fe       1.35970741       1.35818967       1.35830815       2.30000000      -0.00742848       0.00069405       0.00638266
2
Lattice="2.7734 0.0 0.0 0.0 2.7734 0.0 0.0 0.0 2.7734" Properties=species:S:1:pos:R:3:initial_magmoms:R:1:forces:R:3 energy=-16.42684822974038 stresses="_JSON [-0.0816371219109926, -0.08163806650375773, -0.0816373713623507, -1.3822212051024698e-08, 1.4793032166508125e-07, 1.6086715147303078e-08]" pbc="T T T"
Fe       0.00048678      -0.00013550       0.00063473       2.30000000       0.01050627      -0.00098161      -0.00902714
Fe       1.38819257       1.38647053       1.38647055       2.30000000      -0.01050627       0.00098161       0.00902714
2
Lattice="2.7734 0.0 0.0 0.0 2.7734 0.0 0.0 0.0 2.7734" Properties=species:S:1:pos:R:3:initial_magmoms:R:1:forces:R:3 energy=-16.426852917139826 stresses="_JSON [-0.08163715410847502, -0.08163761901334957, -0.08163727689525978, -6.802285446757724e-09, 7.280327410467697e-08, 7.916787614338723e-09]" pbc="T T T"
Fe       0.00063687      -0.00014952       0.00050578       2.30000000       0.00737069      -0.00068865      -0.00633301
Fe       1.38804248       1.38648455       1.38659950       2.30000000      -0.00737069       0.00068865       0.00633301
2
Lattice="2.7168 0.0 0.0 0.0 2.7168 0.0 0.0 0.0 2.7168" Properties=species:S:1:pos:R:3:initial_magmoms:R:1:forces:R:3 energy=-16.24494677201215 stresses="_JSON [-0.20949420435268892, -0.20949529066783945, -0.20949449124359182, -4.217410091380239e-08, 4.513815021936072e-07, 4.9084060244020535e-08]" pbc="T T T"
Fe       0.00047685      -0.00013273       0.00062178       2.30000000       0.01082919      -0.00101178      -0.00930460
Fe       1.35986211       1.35817521       1.35817523       2.30000000      -0.01082919       0.00101178       0.00930460
2
Lattice="2.7168 0.0 0.0 0.0 2.7168 0.0 0.0 0.0 2.7168" Properties=species:S:1:pos:R:3:initial_magmoms:R:1:forces:R:3 energy=-16.244951706377574 stresses="_JSON [-0.2094945753833897, -0.20949508655327675, -0.20949471040359346, -1.9844104804790996e-08, 2.1239139472834967e-07, 2.3095537127956634e-08]" pbc="T T T"
Fe       0.00063155      -0.00014719       0.00048886       2.30000000       0.00742848      -0.00069405      -0.00638266
Fe       1.35970741       1.35818967       1.35830815       2.30000000      -0.00742848       0.00069405       0.00638266
2
Lattice="2.7168 0.0 0.0 0.0 2.7168 0.0 0.0 0.0 2.7168" Properties=species:S:1:pos:R:3:initial_magmoms:R:1:forces:R:3 energy=-16.24494677201215 stresses="_JSON [-0.20949420435268862, -0.20949529066783953, -0.20949449124359187, -4.217410088127531e-08, 4.513815021825342e-07, 4.908406026409043e-08]" pbc="T T T"
Fe       0.00047685      -0.00013273       0.00062178       2.30000000       0.01082919      -0.00101178      -0.00930460
Fe       1.35986211       1.35817521       1.35817523       2.30000000      -0.01082919       0.00101178       0.00930460
2
Lattice="2.7168 0.0 0.0 0.0 2.7168 0.0 0.0 0.0 2.7168" Properties=species:S:1:pos:R:3:initial_magmoms:R:1:forces:R:3 energy=-16.24495170637757 stresses="_JSON [-0.2094945753833894, -0.20949508655327684, -0.20949471040359324, -1.9844104861886403e-08, 2.1239139470343533e-07, 2.3095537015842013e-08]" pbc="T T T"
Fe       0.00063155      -0.00014719       0.00048886       2.30000000       0.00742848      -0.00069405      -0.00638266
Fe       1.35970741       1.35818967       1.35830815       2.30000000      -0.00742848       0.00069405       0.00638266
2
Lattice="2.7734 0.0 0.0 0.0 2.7734 0.0 0.0 0.0 2.7734" Properties=species:S:1:pos:R:3:initial_magmoms:R:1:forces:R:3 energy=-16.42684822974038 stresses="_JSON [-0.08163712191099272, -0.08163806650375748, -0.08163737136235084, -1.3822212051024698e-08, 1.479303216546724e-07, 1.6086715151206395e-08]" pbc="T T T"
Fe       0.00048678      -0.00013550       0.00063473       2.30000000       0.01050627      -0.00098161      -0.00902714
Fe       1.38819257       1.38647053       1.38647055       2.30000000      -0.01050627       0.00098161       0.00902714
2
Lattice="2.7734 0.0 0.0 0.0 2.7734 0.0 0.0 0.0 2.7734" Properties=species:S:1:pos:R:3:initial_magmoms:R:1:forces:R:3 energy=-16.426852917139826 stresses="_JSON [-0.08163715410847475, -0.08163761901334977, -0.08163727689525965, -6.8022854379752575e-09, 7.280327409361757e-08, 7.916787627349785e-09]" pbc="T T T"
Fe       0.00063687      -0.00014952       0.00050578       2.30000000       0.00737069      -0.00068865      -0.00633301
Fe       1.38804248       1.38648455       1.38659950       2.30000000      -0.00737069       0.00068865       0.00633301
2
Lattice="2.7734 0.0 0.0 0.0 2.7734 0.0 0.0 0.0 2.7734" Properties=species:S:1:pos:R:3:initial_magmoms:R:1:forces:R:3 energy=-16.426848229740383 stresses="_JSON [-0.08163712191099254, -0.08163806650375782, -0.08163737136235057, -1.3822212043868615e-08, 1.479303216644307e-07, 1.6086715166819667e-08]" pbc="T T T"
Fe       0.00048678      -0.00013550       0.00063473       2.30000000       0.01050627      -0.00098161      -0.00902714
Fe       1.38819257       1.38647053       1.38647055       2.30000000      -0.01050627       0.00098161       0.00902714
2
Lattice="2.7734 0.0 0.0 0.0 2.7734 0.0 0.0 0.0 2.7734" Properties=species:S:1:pos:R:3:initial_magmoms:R:1:forces:R:3 energy=-16.426852917139826 stresses="_JSON [-0.08163715410847479, -0.08163761901334936, -0.08163727689525967, -6.802285434397216e-09, 7.280327408125707e-08, 7.916787616290383e-09]" pbc="T T T"
Fe       0.00063687      -0.00014952       0.00050578       2.30000000       0.00737069      -0.00068865      -0.00633301
Fe       1.38804248       1.38648455       1.38659950       2.30000000      -0.00737069       0.00068865       0.00633301
2
Lattice="2.81868 0.0 0.0 0.0 2.81868 0.0 0.0 0.0 2.81868" Properties=species:S:1:pos:R:3:initial_magmoms:R:1:forces:R:3 energy=-16.473373557923306 stresses="_JSON [-0.011248199142988762, -0.011248199142988727, -0.011248199161688115, 1.2394040662018544e-17, 1.0844785579266226e-17, -1.2394040662018544e-18]" pbc="T T T"
Fe       0.00000000       0.00000000       0.00000000       2.30000000       0.00000000       0.00000000       0.00000000
Fe       1.40934000       1.40934000       1.40934000       2.30000000      -0.00000000      -0.00000000      -0.00000000
2
Lattice="2.81868 0.0 0.0 0.0 2.81868 0.0 0.0 0.0 2.81868" Properties=species:S:1:pos:R:3:initial_magmoms:R:1:forces:R:3 energy=-16.473373557923306 stresses="_JSON [-0.011248199142988748, -0.011248199142988623, -0.011248199161688507, 1.983046505922967e-17, 2.819644250609219e-17, -1.797135895992689e-17]" pbc="T T T"
Fe       0.00000000       0.00000000       0.00000000       2.30000000       0.00000000       0.00000000       0.00000000
Fe       1.40934000       1.40934000       1.40934000       2.30000000      -0.00000000      -0.00000000      -0.00000000
2
Lattice="2.81868 0.0 0.0 0.0 2.81868 0.0 0.0 0.0 2.81868" Properties=species:S:1:pos:R:3:initial_magmoms:R:1:forces:R:3 energy=-16.473373557923303 stresses="_JSON [-0.011248199142988883, -0.011248199142988753, -0.011248199161688644, 9.915232529614835e-18, 8.675828463412981e-18, 5.577318297908345e-18]" pbc="T T T"
Fe       0.00000000       0.00000000       0.00000000       2.30000000       0.00000000       0.00000000       0.00000000
Fe       1.40934000       1.40934000       1.40934000       2.30000000      -0.00000000      -0.00000000      -0.00000000
