2
Lattice="2.85264 0.0 0.0 0.0 2.85264 0.0 0.0 0.0 2.85264" Properties=species:S:1:pos:R:3:initial_magmoms:R:1:forces:R:3 energy=-16.466905258381157 stresses="_JSON [0.025033867988989725, 0.025033867988989673, 0.02503386797329303, 1.9130632026815674e-17, -2.4511122284357582e-17, -2.989161254189949e-19]" pbc="T T T"
Fe       0.00000000       0.00000000       0.00000000       2.30000000       0.00000000      -0.00000000       0.00000000
Fe       1.42632000       1.42632000       1.42632000       2.30000000       0.00000000       0.00000000      -0.00000000
