2
Lattice="3.0564000000000004 0.0 0.0 0.0 3.0564000000000004 0.0 0.0 0.0 3.0564000000000004" Properties=species:S:1:pos:R:3:initial_magmoms:R:1:forces:R:3 energy=-15.981112608833868 stresses="_JSON [0.1372385727152647, 0.13723830588812308, 0.13723850224853537, 5.929559372441341e-09, -6.346754204064264e-08, -6.901211510828529e-09]" pbc="T T T"
Fe       0.00053645      -0.00014933       0.00069950       2.30000000       0.00417746      -0.00039030      -0.00358934
Fe       1.52984487       1.52794711       1.52794713       2.30000000      -0.00417746       0.00039030       0.00358934
2
Lattice="3.0564000000000004 0.0 0.0 0.0 3.0564000000000004 0.0 0.0 0.0 3.0564000000000004" Properties=species:S:1:pos:R:3:initial_magmoms:R:1:forces:R:3 energy=-15.981112608833866 stresses="_JSON [0.13723857271526468, 0.13723830588812314, 0.13723850224853532, 5.929559388967373e-09, -6.346754202703298e-08, -6.901211499163095e-09]" pbc="T T T"
Fe       0.00053645      -0.00014933       0.00069950       2.30000000       0.00417746      -0.00039030      -0.00358934
Fe       1.52984487       1.52794711       1.52794713       2.30000000      -0.00417746       0.00039030       0.00358934
2
Lattice="3.0564000000000004 0.0 0.0 0.0 3.0564000000000004 0.0 0.0 0.0 3.0564000000000004" Properties=species:S:1:pos:R:3:initial_magmoms:R:1:forces:R:3 energy=-15.981112608833866 stresses="_JSON [0.13723857271526466, 0.13723830588812305, 0.13723850224853534, 5.929559401604927e-09, -6.346754203286569e-08, -6.901211518605485e-09]" pbc="T T T"
Fe       0.00053645      -0.00014933       0.00069950       2.30000000       0.00417746      -0.00039030      -0.00358934
Fe       1.52984487       1.52794711       1.52794713       2.30000000      -0.00417746       0.00039030       0.00358934
2
Lattice="3.0564000000000004 0.0 0.0 0.0 3.0564000000000004 0.0 0.0 0.0 3.0564000000000004" Properties=species:S:1:pos:R:3:initial_magmoms:R:1:forces:R:3 energy=-15.981112608833866 stresses="_JSON [0.13723857271526474, 0.13723830588812316, 0.1372385022485354, 5.929559389939492e-09, -6.346754206591776e-08, -6.901211495274617e-09]" pbc="T T T"
Fe       0.00053645      -0.00014933       0.00069950       2.30000000       0.00417746      -0.00039030      -0.00358934
Fe       1.52984487       1.52794711       1.52794713       2.30000000      -0.00417746       0.00039030       0.00358934
2
Lattice="3.0564000000000004 0.0 0.0 0.0 3.0564000000000004 0.0 0.0 0.0 3.0564000000000004" Properties=species:S:1:pos:R:3:initial_magmoms:R:1:forces:R:3 energy=-15.981112608833865 stresses="_JSON [0.13723857271526468, 0.13723830588812305, 0.13723850224853532, 5.929559373413461e-09, -6.346754205619656e-08, -6.90121153027092e-09]" pbc="T T T"
Fe       0.00053645      -0.00014933       0.00069950       2.30000000       0.00417746      -0.00039030      -0.00358934
Fe       1.52984487       1.52794711       1.52794713       2.30000000      -0.00417746       0.00039030       0.00358934
2
Lattice="3.0564000000000004 0.0 0.0 0.0 3.0564000000000004 0.0 0.0 0.0 3.0564000000000004" Properties=species:S:1:pos:R:3:initial_magmoms:R:1:forces:R:3 energy=-15.981112608833868 stresses="_JSON [0.13723857271526466, 0.1372383058881231, 0.13723850224853532, 5.929559396744329e-09, -6.346754203480993e-08, -6.901211499163095e-09]" pbc="T T T"
Fe       0.00053645      -0.00014933       0.00069950       2.30000000       0.00417746      -0.00039030      -0.00358934
Fe       1.52984487       1.52794711       1.52794713       2.30000000      -0.00417746       0.00039030       0.00358934
2
Lattice="3.0564000000000004 0.0 0.0 0.0 3.0564000000000004 0.0 0.0 0.0 3.0564000000000004" Properties=species:S:1:pos:R:3:initial_magmoms:R:1:forces:R:3 energy=-15.981112608833866 stresses="_JSON [0.13723857271526463, 0.13723830588812308, 0.13723850224853532, 5.929559366608624e-09, -6.346754205036384e-08, -6.901211491386139e-09]" pbc="T T T"
Fe       0.00053645      -0.00014933       0.00069950       2.30000000       0.00417746      -0.00039030      -0.00358934
Fe       1.52984487       1.52794711       1.52794713       2.30000000      -0.00417746       0.00039030       0.00358934
2
Lattice="3.0564000000000004 0.0 0.0 0.0 3.0564000000000004 0.0 0.0 0.0 3.0564000000000004" Properties=species:S:1:pos:R:3:initial_magmoms:R:1:forces:R:3 energy=-15.981112608833866 stresses="_JSON [0.13723857271526468, 0.13723830588812302, 0.13723850224853532, 5.929559376329819e-09, -6.346754202411662e-08, -6.901211514717008e-09]" pbc="T T T"
Fe       0.00053645      -0.00014933       0.00069950       2.30000000       0.00417746      -0.00039030      -0.00358934
Fe       1.52984487       1.52794711       1.52794713       2.30000000      -0.00417746       0.00039030       0.00358934
2
Lattice="3.0564000000000004 0.0 0.0 0.0 3.0564000000000004 0.0 0.0 0.0 3.0564000000000004" Properties=species:S:1:pos:R:3:initial_magmoms:R:1:forces:R:3 energy=-15.981112608833866 stresses="_JSON [0.13723857271526468, 0.13723830588812308, 0.1372385022485354, 5.929559398688568e-09, -6.346754206591776e-08, -6.901211487497661e-09]" pbc="T T T"
Fe       0.00053645      -0.00014933       0.00069950       2.30000000       0.00417746      -0.00039030      -0.00358934
Fe       1.52984487       1.52794711       1.52794713       2.30000000      -0.00417746       0.00039030       0.00358934
2
Lattice="3.0564000000000004 0.0 0.0 0.0 3.0564000000000004 0.0 0.0 0.0 3.0564000000000004" Properties=species:S:1:pos:R:3:initial_magmoms:R:1:forces:R:3 energy=-15.981112608833866 stresses="_JSON [0.13723857271526463, 0.13723830588812308, 0.1372385022485353, 5.929559382162536e-09, -6.346754203189357e-08, -6.901211506940052e-09]" pbc="T T T"
Fe       0.00053645      -0.00014933       0.00069950       2.30000000       0.00417746      -0.00039030      -0.00358934
Fe       1.52984487       1.52794711       1.52794713       2.30000000      -0.00417746       0.00039030       0.00358934
2
Lattice="2.9432 0.0 0.0 0.0 2.9432 0.0 0.0 0.0 2.9432" Properties=species:S:1:pos:R:3:initial_magmoms:R:1:forces:R:3 energy=-16.331362665412993 stresses="_JSON [0.08769739555310002, 0.08769681635359822, 0.08769724260059952, 2.14859771899549e-09, -2.2997519734767085e-08, -2.5006743225430816e-09]" pbc="T T T"
Fe       0.00051658      -0.00014379       0.00067360       2.30000000       0.00673032      -0.00062882      -0.00578280
Fe       1.47318395       1.47135648       1.47135650       2.30000000      -0.00673032       0.00062882       0.00578280
2
Lattice="3.0564000000000004 0.0 0.0 0.0 3.0564000000000004 0.0 0.0 0.0 3.0564000000000004" Properties=species:S:1:pos:R:3:initial_magmoms:R:1:forces:R:3 energy=-15.981112608833866 stresses="_JSON [0.13723857271526466, 0.13723830588812305, 0.1372385022485353, 5.92955937438558e-09, -6.346754205425232e-08, -6.901211510828529e-09]" pbc="T T T"
Fe       0.00053645      -0.00014933       0.00069950       2.30000000       0.00417746      -0.00039030      -0.00358934
Fe       1.52984487       1.52794711       1.52794713       2.30000000      -0.00417746       0.00039030       0.00358934
2
Lattice="3.0564000000000004 0.0 0.0 0.0 3.0564000000000004 0.0 0.0 0.0 3.0564000000000004" Properties=species:S:1:pos:R:3:initial_magmoms:R:1:forces:R:3 energy=-15.981112608833866 stresses="_JSON [0.13723857271526468, 0.13723830588812316, 0.13723850224853537, 5.929559402577047e-09, -6.346754203967053e-08, -6.901211510828529e-09]" pbc="T T T"
Fe       0.00053645      -0.00014933       0.00069950       2.30000000       0.00417746      -0.00039030      -0.00358934
Fe       1.52984487       1.52794711       1.52794713       2.30000000      -0.00417746       0.00039030       0.00358934
2
Lattice="2.9432 0.0 0.0 0.0 2.9432 0.0 0.0 0.0 2.9432" Properties=species:S:1:pos:R:3:initial_magmoms:R:1:forces:R:3 energy=-16.331362665412996 stresses="_JSON [0.08769739555309981, 0.08769681635359822, 0.08769724260059947, 2.1485977260717584e-09, -2.2997519734767085e-08, -2.5006743198214403e-09]" pbc="T T T"
Fe       0.00051658      -0.00014379       0.00067360       2.30000000       0.00673032      -0.00062882      -0.00578280
Fe       1.47318395       1.47135648       1.47135650       2.30000000      -0.00673032       0.00062882       0.00578280
2
Lattice="2.9432 0.0 0.0 0.0 2.9432 0.0 0.0 0.0 2.9432" Properties=species:S:1:pos:R:3:initial_magmoms:R:1:forces:R:3 energy=-16.331362665412996 stresses="_JSON [0.0876973955531001, 0.08769681635359823, 0.08769724260059959, 2.148597714640864e-09, -2.2997519719525892e-08, -2.500674316011142e-09]" pbc="T T T"
Fe       0.00051658      -0.00014379       0.00067360       2.30000000       0.00673032      -0.00062882      -0.00578280
Fe       1.47318395       1.47135648       1.47135650       2.30000000      -0.00673032       0.00062882       0.00578280
2
Lattice="2.85264 0.0 0.0 0.0 2.85264 0.0 0.0 0.0 2.85264" Properties=species:S:1:pos:R:3:initial_magmoms:R:1:forces:R:3 energy=-16.466905258381157 stresses="_JSON [0.02503386798898984, 0.025033867988989725, 0.025033867973293128, 0.0, -9.565316013407837e-18, -8.070735386312862e-18]" pbc="T T T"
Fe       0.00000000       0.00000000       0.00000000       2.30000000      -0.00000000      -0.00000000       0.00000000
Fe       1.42632000       1.42632000       1.42632000       2.30000000       0.00000000       0.00000000       0.00000000
2
Lattice="2.85264 0.0 0.0 0.0 2.85264 0.0 0.0 0.0 2.85264" Properties=species:S:1:pos:R:3:initial_magmoms:R:1:forces:R:3 energy=-16.466905258381157 stresses="_JSON [0.025033867988989714, 0.025033867988989593, 0.02503386797329284, -9.565316013407837e-18, 1.0760980515083817e-17, -4.483741881284923e-18]" pbc="T T T"
Fe       0.00000000       0.00000000       0.00000000       2.30000000       0.00000000       0.00000000       0.00000000
Fe       1.42632000       1.42632000       1.42632000       2.30000000       0.00000000      -0.00000000       0.00000000
2
Lattice="2.85264 0.0 0.0 0.0 2.85264 0.0 0.0 0.0 2.85264" Properties=species:S:1:pos:R:3:initial_magmoms:R:1:forces:R:3 energy=-16.466905258381157 stresses="_JSON [0.025033867988989725, 0.025033867988989673, 0.02503386797329303, 1.9130632026815674e-17, -2.4511122284357582e-17, -2.989161254189949e-19]" pbc="T T T"
Fe       0.00000000       0.00000000       0.00000000       2.30000000       0.00000000      -0.00000000       0.00000000
Fe       1.42632000       1.42632000       1.42632000       2.30000000       0.00000000       0.00000000      -0.00000000
