2
Lattice="2.78472 0.0 0.0 0.0 2.78472 0.0 0.0 0.0 2.78472" Properties=species:S:1:pos:R:3:initial_magmoms:R:1:forces:R:3 energy=-16.445545463260913 stresses="_JSON [-0.06122334072179636, -0.06122334072179634, -0.061223340745559685, -3.598849356226346e-17, -2.0243527628773198e-17, 0.0]" pbc="T T T"
Fe       0.00000000       0.00000000       0.00000000       2.30000000       0.00000000       0.00000000       0.00000000
Fe       1.39236000       1.39236000       1.39236000       2.30000000      -0.00000000      -0.00000000      -0.00000000
