2
Lattice="2.3771999999999998 0.0 0.0 0.0 2.3771999999999998 0.0 0.0 0.0 2.3771999999999998" Properties=species:S:1:pos:R:3:initial_magmoms:R:1:forces:R:3 energy=-10.897777223869774 stresses="_JSON [-1.6137919031173684, -1.6137933993317364, -1.6137922981724826, 1.469502207797184e-07, -1.5728559322208291e-06, -1.7102924730276177e-07]" pbc="T T T"
Fe       0.00041724      -0.00011614       0.00054406       2.30000000       0.01427777      -0.00133397      -0.01226765
Fe       1.18987935       1.18840331       1.18840332       2.30000000      -0.01427777       0.00133397       0.01226765
2
Lattice="2.3771999999999998 0.0 0.0 0.0 2.3771999999999998 0.0 0.0 0.0 2.3771999999999998" Properties=species:S:1:pos:R:3:initial_magmoms:R:1:forces:R:3 energy=-10.897784991637149 stresses="_JSON [-1.6137949881398888, -1.6137954033881972, -1.6137950977551483, 4.07846430566055e-08, -4.365244766854663e-07, -4.746735252621406e-08]" pbc="T T T"
Fe       0.00062121      -0.00013520       0.00036881       2.30000000       0.00752173      -0.00070276      -0.00646278
Fe       1.18967538       1.18842237       1.18857858       2.30000000      -0.00752173       0.00070276       0.00646278
2
Lattice="2.3771999999999998 0.0 0.0 0.0 2.3771999999999998 0.0 0.0 0.0 2.3771999999999998" Properties=species:S:1:pos:R:3:initial_magmoms:R:1:forces:R:3 energy=-10.89777722386977 stresses="_JSON [-1.6137919031173686, -1.6137933993317375, -1.6137922981724828, 1.469502221020277e-07, -1.5728559342704085e-06, -1.7102924809614733e-07]" pbc="T T T"
Fe       0.00041724      -0.00011614       0.00054406       2.30000000       0.01427777      -0.00133397      -0.01226765
Fe       1.18987935       1.18840331       1.18840332       2.30000000      -0.01427777       0.00133397       0.01226765
2
Lattice="2.3771999999999998 0.0 0.0 0.0 2.3771999999999998 0.0 0.0 0.0 2.3771999999999998" Properties=species:S:1:pos:R:3:initial_magmoms:R:1:forces:R:3 energy=-10.897784991637158 stresses="_JSON [-1.613794988139888, -1.613795403388199, -1.61379509775515, 4.07846449078385e-08, -4.3652447637141784e-07, -4.746735255927179e-08]" pbc="T T T"
Fe       0.00062121      -0.00013520       0.00036881       2.30000000       0.00752173      -0.00070276      -0.00646278
Fe       1.18967538       1.18842237       1.18857858       2.30000000      -0.00752173       0.00070276       0.00646278
2
Lattice="2.3771999999999998 0.0 0.0 0.0 2.3771999999999998 0.0 0.0 0.0 2.3771999999999998" Properties=species:S:1:pos:R:3:initial_magmoms:R:1:forces:R:3 energy=-10.897777223869769 stresses="_JSON [-1.6137919031173693, -1.6137933993317384, -1.6137922981724835, 1.469502219036813e-07, -1.5728559321051272e-06, -1.7102924756722362e-07]" pbc="T T T"
Fe       0.00041724      -0.00011614       0.00054406       2.30000000       0.01427777      -0.00133397      -0.01226765
Fe       1.18987935       1.18840331       1.18840332       2.30000000      -0.01427777       0.00133397       0.01226765
2
Lattice="2.3771999999999998 0.0 0.0 0.0 2.3771999999999998 0.0 0.0 0.0 2.3771999999999998" Properties=species:S:1:pos:R:3:initial_magmoms:R:1:forces:R:3 energy=-10.897784991637145 stresses="_JSON [-1.613794988139886, -1.6137954033881952, -1.6137950977551476, 4.078464476734314e-08, -4.365244756441477e-07, -4.746735160059756e-08]" pbc="T T T"
Fe       0.00062121      -0.00013520       0.00036881       2.30000000       0.00752173      -0.00070276      -0.00646278
Fe       1.18967538       1.18842237       1.18857858       2.30000000      -0.00752173       0.00070276       0.00646278
2
Lattice="2.3771999999999998 0.0 0.0 0.0 2.3771999999999998 0.0 0.0 0.0 2.3771999999999998" Properties=species:S:1:pos:R:3:initial_magmoms:R:1:forces:R:3 energy=-10.897777223869772 stresses="_JSON [-1.6137919031173706, -1.6137933993317408, -1.6137922981724862, 1.4695022003591942e-07, -1.5728559336918984e-06, -1.7102924832755147e-07]" pbc="T T T"
Fe       0.00041724      -0.00011614       0.00054406       2.30000000       0.01427777      -0.00133397      -0.01226765
Fe       1.18987935       1.18840331       1.18840332       2.30000000      -0.01427777       0.00133397       0.01226765
2
Lattice="2.3771999999999998 0.0 0.0 0.0 2.3771999999999998 0.0 0.0 0.0 2.3771999999999998" Properties=species:S:1:pos:R:3:initial_magmoms:R:1:forces:R:3 energy=-10.89778499163716 stresses="_JSON [-1.6137949881398876, -1.6137954033881956, -1.6137950977551492, 4.078464446982355e-08, -4.3652447670199516e-07, -4.746735312125324e-08]" pbc="T T T"
Fe       0.00062121      -0.00013520       0.00036881       2.30000000       0.00752173      -0.00070276      -0.00646278
Fe       1.18967538       1.18842237       1.18857858       2.30000000      -0.00752173       0.00070276       0.00646278
2
Lattice="2.3771999999999998 0.0 0.0 0.0 2.3771999999999998 0.0 0.0 0.0 2.3771999999999998" Properties=species:S:1:pos:R:3:initial_magmoms:R:1:forces:R:3 energy=-10.897777223869774 stresses="_JSON [-1.6137919031173693, -1.6137933993317406, -1.613792298172484, 1.4695022188715243e-07, -1.5728559330638014e-06, -1.710292474349927e-07]" pbc="T T T"
Fe       0.00041724      -0.00011614       0.00054406       2.30000000       0.01427777      -0.00133397      -0.01226765
Fe       1.18987935       1.18840331       1.18840332       2.30000000      -0.01427777       0.00133397       0.01226765
2
Lattice="2.3771999999999998 0.0 0.0 0.0 2.3771999999999998 0.0 0.0 0.0 2.3771999999999998" Properties=species:S:1:pos:R:3:initial_magmoms:R:1:forces:R:3 energy=-10.897784991637165 stresses="_JSON [-1.6137949881398903, -1.6137954033881998, -1.6137950977551496, 4.0784644577261176e-08, -4.3652447567720546e-07, -4.74673513361357e-08]" pbc="T T T"
Fe       0.00062121      -0.00013520       0.00036881       2.30000000       0.00752173      -0.00070276      -0.00646278
Fe       1.18967538       1.18842237       1.18857858       2.30000000      -0.00752173       0.00070276       0.00646278
2
Lattice="2.3771999999999998 0.0 0.0 0.0 2.3771999999999998 0.0 0.0 0.0 2.3771999999999998" Properties=species:S:1:pos:R:3:initial_magmoms:R:1:forces:R:3 energy=-10.897777223869777 stresses="_JSON [-1.6137919031173709, -1.6137933993317388, -1.6137922981724842, 1.4695022121773335e-07, -1.5728559326009932e-06, -1.710292474349927e-07]" pbc="T T T"
Fe       0.00041724      -0.00011614       0.00054406       2.30000000       0.01427777      -0.00133397      -0.01226765
Fe       1.18987935       1.18840331       1.18840332       2.30000000      -0.01427777       0.00133397       0.01226765
2
Lattice="2.3771999999999998 0.0 0.0 0.0 2.3771999999999998 0.0 0.0 0.0 2.3771999999999998" Properties=species:S:1:pos:R:3:initial_magmoms:R:1:forces:R:3 energy=-10.897784991637153 stresses="_JSON [-1.6137949881398905, -1.6137954033882012, -1.613795097755151, 4.078464326321633e-08, -4.365244751317529e-07, -4.746735394769654e-08]" pbc="T T T"
Fe       0.00062121      -0.00013520       0.00036881       2.30000000       0.00752173      -0.00070276      -0.00646278
Fe       1.18967538       1.18842237       1.18857858       2.30000000      -0.00752173       0.00070276       0.00646278
2
Lattice="2.3771999999999998 0.0 0.0 0.0 2.3771999999999998 0.0 0.0 0.0 2.3771999999999998" Properties=species:S:1:pos:R:3:initial_magmoms:R:1:forces:R:3 energy=-10.897777223869769 stresses="_JSON [-1.6137919031173693, -1.613793399331737, -1.6137922981724835, 1.469502218293014e-07, -1.5728559321712426e-06, -1.7102924842672465e-07]" pbc="T T T"
Fe       0.00041724      -0.00011614       0.00054406       2.30000000       0.01427777      -0.00133397      -0.01226765
Fe       1.18987935       1.18840331       1.18840332       2.30000000      -0.01427777       0.00133397       0.01226765
2
Lattice="2.3771999999999998 0.0 0.0 0.0 2.3771999999999998 0.0 0.0 0.0 2.3771999999999998" Properties=species:S:1:pos:R:3:initial_magmoms:R:1:forces:R:3 energy=-10.897784991637156 stresses="_JSON [-1.6137949881398919, -1.613795403388199, -1.6137950977551527, 4.078464482519417e-08, -4.3652447678463947e-07, -4.746735315431097e-08]" pbc="T T T"
Fe       0.00062121      -0.00013520       0.00036881       2.30000000       0.00752173      -0.00070276      -0.00646278
Fe       1.18967538       1.18842237       1.18857858       2.30000000      -0.00752173       0.00070276       0.00646278
2
Lattice="2.3771999999999998 0.0 0.0 0.0 2.3771999999999998 0.0 0.0 0.0 2.3771999999999998" Properties=species:S:1:pos:R:3:initial_magmoms:R:1:forces:R:3 energy=-10.89777722386977 stresses="_JSON [-1.6137919031173682, -1.6137933993317353, -1.6137922981724824, 1.469502224078117e-07, -1.5728559346175148e-06, -1.710292475341659e-07]" pbc="T T T"
Fe       0.00041724      -0.00011614       0.00054406       2.30000000       0.01427777      -0.00133397      -0.01226765
Fe       1.18987935       1.18840331       1.18840332       2.30000000      -0.01427777       0.00133397       0.01226765
2
Lattice="2.3771999999999998 0.0 0.0 0.0 2.3771999999999998 0.0 0.0 0.0 2.3771999999999998" Properties=species:S:1:pos:R:3:initial_magmoms:R:1:forces:R:3 energy=-10.897784991637158 stresses="_JSON [-1.6137949881398872, -1.6137954033881976, -1.613795097755149, 4.078464370949571e-08, -4.3652447313176007e-07, -4.746735398075427e-08]" pbc="T T T"
Fe       0.00062121      -0.00013520       0.00036881       2.30000000       0.00752173      -0.00070276      -0.00646278
Fe       1.18967538       1.18842237       1.18857858       2.30000000      -0.00752173       0.00070276       0.00646278
2
Lattice="2.3771999999999998 0.0 0.0 0.0 2.3771999999999998 0.0 0.0 0.0 2.3771999999999998" Properties=species:S:1:pos:R:3:initial_magmoms:R:1:forces:R:3 energy=-10.897777223869777 stresses="_JSON [-1.6137919031173678, -1.6137933993317364, -1.6137922981724817, 1.4695022154831067e-07, -1.5728559330803302e-06, -1.7102924746805043e-07]" pbc="T T T"
Fe       0.00041724      -0.00011614       0.00054406       2.30000000       0.01427777      -0.00133397      -0.01226765
Fe       1.18987935       1.18840331       1.18840332       2.30000000      -0.01427777       0.00133397       0.01226765
2
Lattice="2.3771999999999998 0.0 0.0 0.0 2.3771999999999998 0.0 0.0 0.0 2.3771999999999998" Properties=species:S:1:pos:R:3:initial_magmoms:R:1:forces:R:3 energy=-10.897784991637154 stresses="_JSON [-1.6137949881398872, -1.613795403388199, -1.6137950977551487, 4.078464518882922e-08, -4.365244744375405e-07, -4.746735302208004e-08]" pbc="T T T"
Fe       0.00062121      -0.00013520       0.00036881       2.30000000       0.00752173      -0.00070276      -0.00646278
Fe       1.18967538       1.18842237       1.18857858       2.30000000      -0.00752173       0.00070276       0.00646278
2
Lattice="2.3771999999999998 0.0 0.0 0.0 2.3771999999999998 0.0 0.0 0.0 2.3771999999999998" Properties=species:S:1:pos:R:3:initial_magmoms:R:1:forces:R:3 energy=-10.89777722386977 stresses="_JSON [-1.6137919031173709, -1.613793399331739, -1.6137922981724835, 1.4695022133343543e-07, -1.57285593395636e-06, -1.7102924922011024e-07]" pbc="T T T"
Fe       0.00041724      -0.00011614       0.00054406       2.30000000       0.01427777      -0.00133397      -0.01226765
Fe       1.18987935       1.18840331       1.18840332       2.30000000      -0.01427777       0.00133397       0.01226765
2
Lattice="2.3771999999999998 0.0 0.0 0.0 2.3771999999999998 0.0 0.0 0.0 2.3771999999999998" Properties=species:S:1:pos:R:3:initial_magmoms:R:1:forces:R:3 energy=-10.89778499163716 stresses="_JSON [-1.6137949881398894, -1.6137954033881985, -1.6137950977551503, 4.078464286652354e-08, -4.365244748342333e-07, -4.746735259232952e-08]" pbc="T T T"
Fe       0.00062121      -0.00013520       0.00036881       2.30000000       0.00752173      -0.00070276      -0.00646278
Fe       1.18967538       1.18842237       1.18857858       2.30000000      -0.00752173       0.00070276       0.00646278
2
Lattice="2.6036 0.0 0.0 0.0 2.6036 0.0 0.0 0.0 2.6036" Properties=species:S:1:pos:R:3:initial_magmoms:R:1:forces:R:3 energy=-15.3857667303204 stresses="_JSON [-0.5424873994747224, -0.542488334909695, -0.5424876465724201, -2.3350888670512212e-07, 2.499281650861764e-06, 2.7177012888987417e-07]" pbc="T T T"
Fe       0.00045698      -0.00012720       0.00059587       2.30000000       0.01154264      -0.00107843      -0.00991760
Fe       1.30320119       1.30158458       1.30158459       2.30000000      -0.01154264       0.00107843       0.00991760
2
Lattice="2.6036 0.0 0.0 0.0 2.6036 0.0 0.0 0.0 2.6036" Properties=species:S:1:pos:R:3:initial_magmoms:R:1:forces:R:3 energy=-15.38577221907375 stresses="_JSON [-0.5424870941639404, -0.5424874902621898, -0.5424871988487846, -9.887794850818555e-08, 1.058305570668314e-06, 1.150794329145512e-07]" pbc="T T T"
Fe       0.00062187      -0.00014261       0.00045419       2.30000000       0.00751106      -0.00070176      -0.00645361
Fe       1.30303629       1.30159999       1.30172627       2.30000000      -0.00751106       0.00070176       0.00645361
2
Lattice="2.3771999999999998 0.0 0.0 0.0 2.3771999999999998 0.0 0.0 0.0 2.3771999999999998" Properties=species:S:1:pos:R:3:initial_magmoms:R:1:forces:R:3 energy=-10.897777223869777 stresses="_JSON [-1.6137919031173698, -1.6137933993317384, -1.6137922981724848, 1.469502220524411e-07, -1.5728559332952055e-06, -1.7102924809614733e-07]" pbc="T T T"
Fe       0.00041724      -0.00011614       0.00054406       2.30000000       0.01427777      -0.00133397      -0.01226765
Fe       1.18987935       1.18840331       1.18840332       2.30000000      -0.01427777       0.00133397       0.01226765
2
Lattice="2.3771999999999998 0.0 0.0 0.0 2.3771999999999998 0.0 0.0 0.0 2.3771999999999998" Properties=species:S:1:pos:R:3:initial_magmoms:R:1:forces:R:3 energy=-10.897784991637156 stresses="_JSON [-1.6137949881398876, -1.6137954033881978, -1.6137950977551474, 4.0784644461559115e-08, -4.3652447339622197e-07, -4.746735239398313e-08]" pbc="T T T"
Fe       0.00062121      -0.00013520       0.00036881       2.30000000       0.00752173      -0.00070276      -0.00646278
Fe       1.18967538       1.18842237       1.18857858       2.30000000      -0.00752173       0.00070276       0.00646278
2
Lattice="2.3771999999999998 0.0 0.0 0.0 2.3771999999999998 0.0 0.0 0.0 2.3771999999999998" Properties=species:S:1:pos:R:3:initial_magmoms:R:1:forces:R:3 energy=-10.897777223869767 stresses="_JSON [-1.6137919031173704, -1.6137933993317402, -1.613792298172485, 1.4695021960616891e-07, -1.5728559342869375e-06, -1.7102924829449373e-07]" pbc="T T T"
Fe       0.00041724      -0.00011614       0.00054406       2.30000000       0.01427777      -0.00133397      -0.01226765
Fe       1.18987935       1.18840331       1.18840332       2.30000000      -0.01427777       0.00133397       0.01226765
2
Lattice="2.3771999999999998 0.0 0.0 0.0 2.3771999999999998 0.0 0.0 0.0 2.3771999999999998" Properties=species:S:1:pos:R:3:initial_magmoms:R:1:forces:R:3 energy=-10.897784991637156 stresses="_JSON [-1.6137949881398868, -1.6137954033881978, -1.6137950977551476, 4.078464433759262e-08, -4.365244745201848e-07, -4.74673542121584e-08]" pbc="T T T"
Fe       0.00062121      -0.00013520       0.00036881       2.30000000       0.00752173      -0.00070276      -0.00646278
Fe       1.18967538       1.18842237       1.18857858       2.30000000      -0.00752173       0.00070276       0.00646278
2
Lattice="2.6036 0.0 0.0 0.0 2.6036 0.0 0.0 0.0 2.6036" Properties=species:S:1:pos:R:3:initial_magmoms:R:1:forces:R:3 energy=-15.385766730320402 stresses="_JSON [-0.542487399474722, -0.5424883349096941, -0.5424876465724193, -2.3350888684036858e-07, 2.49928165128323e-06, 2.717701294591674e-07]" pbc="T T T"
Fe       0.00045698      -0.00012720       0.00059587       2.30000000       0.01154264      -0.00107843      -0.00991760
Fe       1.30320119       1.30158458       1.30158459       2.30000000      -0.01154264       0.00107843       0.00991760
2
Lattice="2.6036 0.0 0.0 0.0 2.6036 0.0 0.0 0.0 2.6036" Properties=species:S:1:pos:R:3:initial_magmoms:R:1:forces:R:3 energy=-15.385772219073747 stresses="_JSON [-0.5424870941639407, -0.5424874902621902, -0.5424871988487848, -9.887794843898969e-08, 1.058305570630571e-06, 1.1507943271954468e-07]" pbc="T T T"
Fe       0.00062187      -0.00014261       0.00045419       2.30000000       0.00751106      -0.00070176      -0.00645361
Fe       1.30303629       1.30159999       1.30172627       2.30000000      -0.00751106       0.00070176       0.00645361
2
Lattice="2.6036 0.0 0.0 0.0 2.6036 0.0 0.0 0.0 2.6036" Properties=species:S:1:pos:R:3:initial_magmoms:R:1:forces:R:3 energy=-15.385766730320398 stresses="_JSON [-0.5424873994747229, -0.5424883349096946, -0.5424876465724199, -2.3350888650697033e-07, 2.4992816508900716e-06, 2.7177012914149547e-07]" pbc="T T T"
Fe       0.00045698      -0.00012720       0.00059587       2.30000000       0.01154264      -0.00107843      -0.00991760
Fe       1.30320119       1.30158458       1.30158459       2.30000000      -0.01154264       0.00107843       0.00991760
2
Lattice="2.6036 0.0 0.0 0.0 2.6036 0.0 0.0 0.0 2.6036" Properties=species:S:1:pos:R:3:initial_magmoms:R:1:forces:R:3 energy=-15.38577221907375 stresses="_JSON [-0.5424870941639406, -0.5424874902621903, -0.542487198848785, -9.88779482974527e-08, 1.0583055705771013e-06, 1.1507943272898047e-07]" pbc="T T T"
Fe       0.00062187      -0.00014261       0.00045419       2.30000000       0.00751106      -0.00070176      -0.00645361
Fe       1.30303629       1.30159999       1.30172627       2.30000000      -0.00751106       0.00070176       0.00645361
2
Lattice="2.78472 0.0 0.0 0.0 2.78472 0.0 0.0 0.0 2.78472" Properties=species:S:1:pos:R:3:initial_magmoms:R:1:forces:R:3 energy=-16.445545463260913 stresses="_JSON [-0.0612233407217966, -0.06122334072179654, -0.061223340745559685, -2.1850156805659958e-17, -3.052595436084847e-18, -2.5706066830188187e-18]" pbc="T T T"
Fe       0.00000000       0.00000000       0.00000000       2.30000000       0.00000000       0.00000000       0.00000000
Fe       1.39236000       1.39236000       1.39236000       2.30000000      -0.00000000      -0.00000000      -0.00000000
2
Lattice="2.78472 0.0 0.0 0.0 2.78472 0.0 0.0 0.0 2.78472" Properties=species:S:1:pos:R:3:initial_magmoms:R:1:forces:R:3 energy=-16.445545463260913 stresses="_JSON [-0.06122334072179638, -0.06122334072179628, -0.061223340745559435, -1.0282426732075275e-17, -2.891932518396171e-17, -3.277523520848994e-17]" pbc="T T T"
Fe       0.00000000       0.00000000       0.00000000       2.30000000       0.00000000       0.00000000       0.00000000
Fe       1.39236000       1.39236000       1.39236000       2.30000000      -0.00000000      -0.00000000      -0.00000000
2
Lattice="2.78472 0.0 0.0 0.0 2.78472 0.0 0.0 0.0 2.78472" Properties=species:S:1:pos:R:3:initial_magmoms:R:1:forces:R:3 energy=-16.445545463260913 stresses="_JSON [-0.06122334072179636, -0.06122334072179634, -0.061223340745559685, -3.598849356226346e-17, -2.0243527628773198e-17, 0.0]" pbc="T T T"
Fe       0.00000000       0.00000000       0.00000000       2.30000000       0.00000000       0.00000000       0.00000000
Fe       1.39236000       1.39236000       1.39236000       2.30000000      -0.00000000      -0.00000000      -0.00000000
