2
Lattice="2.79604 0.0 0.0 0.0 2.79604 0.0 0.0 0.0 2.79604" Properties=species:S:1:pos:R:3:initial_magmoms:R:1:forces:R:3 energy=-16.459247173238246 stresses="_JSON [-0.04275645716262719, -0.04275645716262698, -0.04275645718442207, 1.0665946088882515e-16, 1.0253275555681703e-16, 1.0983384960575447e-16]" pbc="T T T"
Fe       0.00000000       0.00000000       0.00000000       2.30000000       0.00000000       0.00000000       0.00000000
Fe       1.39802000       1.39802000       1.39802000       2.30000000      -0.00000000      -0.00000000      -0.00000000
