2
Lattice="2.4904 0.0 0.0 0.0 2.4904 0.0 0.0 0.0 2.4904" Properties=species:S:1:pos:R:3:initial_magmoms:R:1:forces:R:3 energy=-13.423383373829019 stresses="_JSON [-1.223724335460879, -1.2237274928968662, -1.2237251693125357, -1.1894193855412005e-07, 1.2730683783108715e-06, 1.384314023236113e-07]" pbc="T T T"
Fe       0.00043711      -0.00012167       0.00056997       2.30000000       0.01568265      -0.00146522      -0.01347473
Fe       1.24654027       1.24499395       1.24499396       2.30000000      -0.01568265       0.00146522       0.01347473
2
Lattice="2.4904 0.0 0.0 0.0 2.4904 0.0 0.0 0.0 2.4904" Properties=species:S:1:pos:R:3:initial_magmoms:R:1:forces:R:3 energy=-13.423392604672955 stresses="_JSON [-1.223724826522656, -1.2237256281761095, -1.223725038316393, -3.0199357185105454e-08, 3.2322682628290407e-07, 3.514758251079041e-08]" pbc="T T T"
Fe       0.00066115      -0.00014260       0.00037747       2.30000000       0.00790218      -0.00073831      -0.00678968
Fe       1.24631623       1.24501488       1.24518646       2.30000000      -0.00790218       0.00073831       0.00678968
2
Lattice="2.4904 0.0 0.0 0.0 2.4904 0.0 0.0 0.0 2.4904" Properties=species:S:1:pos:R:3:initial_magmoms:R:1:forces:R:3 energy=-13.423395745869389 stresses="_JSON [-1.223724993618961, -1.2237249936189591, -1.223724993734457, 5.390935927583598e-16, 7.403552007214808e-16, -7.978585172823725e-16]" pbc="T T T"
Fe       0.00088869      -0.00016386       0.00018196       2.30000000      -0.00000005       0.00000000       0.00000004
Fe       1.24608869       1.24503614       1.24538196       2.30000000       0.00000005      -0.00000000      -0.00000004
2
Lattice="2.4904 0.0 0.0 0.0 2.4904 0.0 0.0 0.0 2.4904" Properties=species:S:1:pos:R:3:initial_magmoms:R:1:forces:R:3 energy=-13.423383373829015 stresses="_JSON [-1.2237243354608787, -1.2237274928968662, -1.2237251693125357, -1.1894193822347599e-07, 1.2730683782964956e-06, 1.384314021295376e-07]" pbc="T T T"
Fe       0.00043711      -0.00012167       0.00056997       2.30000000       0.01568265      -0.00146522      -0.01347473
Fe       1.24654027       1.24499395       1.24499396       2.30000000      -0.01568265       0.00146522       0.01347473
2
Lattice="2.4904 0.0 0.0 0.0 2.4904 0.0 0.0 0.0 2.4904" Properties=species:S:1:pos:R:3:initial_magmoms:R:1:forces:R:3 energy=-13.423392604672955 stresses="_JSON [-1.2237248265226568, -1.2237256281761104, -1.2237250383163933, -3.0199357228232944e-08, 3.2322682635478323e-07, 3.514758266173662e-08]" pbc="T T T"
Fe       0.00066115      -0.00014260       0.00037747       2.30000000       0.00790218      -0.00073831      -0.00678968
Fe       1.24631623       1.24501488       1.24518646       2.30000000      -0.00790218       0.00073831       0.00678968
2
Lattice="2.4904 0.0 0.0 0.0 2.4904 0.0 0.0 0.0 2.4904" Properties=species:S:1:pos:R:3:initial_magmoms:R:1:forces:R:3 energy=-13.423395745869385 stresses="_JSON [-1.223724993618957, -1.2237249936189576, -1.2237249937344552, 7.116035424410349e-16, -2.7314075366423563e-16, -2.0844952253323244e-16]" pbc="T T T"
Fe       0.00088869      -0.00016386       0.00018196       2.30000000      -0.00000005       0.00000000       0.00000004
Fe       1.24608869       1.24503614       1.24538196       2.30000000       0.00000005      -0.00000000      -0.00000004
2
Lattice="2.4904 0.0 0.0 0.0 2.4904 0.0 0.0 0.0 2.4904" Properties=species:S:1:pos:R:3:initial_magmoms:R:1:forces:R:3 energy=-13.423383373829019 stresses="_JSON [-1.2237243354608796, -1.2237274928968664, -1.2237251693125362, -1.1894193848224092e-07, 1.2730683782389925e-06, 1.3843140202171888e-07]" pbc="T T T"
Fe       0.00043711      -0.00012167       0.00056997       2.30000000       0.01568265      -0.00146522      -0.01347473
Fe       1.24654027       1.24499395       1.24499396       2.30000000      -0.01568265       0.00146522       0.01347473
2
Lattice="2.4904 0.0 0.0 0.0 2.4904 0.0 0.0 0.0 2.4904" Properties=species:S:1:pos:R:3:initial_magmoms:R:1:forces:R:3 energy=-13.42339260467296 stresses="_JSON [-1.223724826522656, -1.223725628176109, -1.2237250383163925, -3.019935727854834e-08, 3.232268262397766e-07, 3.5147582575481646e-08]" pbc="T T T"
Fe       0.00066115      -0.00014260       0.00037747       2.30000000       0.00790218      -0.00073831      -0.00678968
Fe       1.24631623       1.24501488       1.24518646       2.30000000      -0.00790218       0.00073831       0.00678968
2
Lattice="2.4904 0.0 0.0 0.0 2.4904 0.0 0.0 0.0 2.4904" Properties=species:S:1:pos:R:3:initial_magmoms:R:1:forces:R:3 energy=-13.423395745869389 stresses="_JSON [-1.2237249936189567, -1.2237249936189571, -1.2237249937344543, 7.547310298617038e-16, -1.2938246226200635e-16, -5.0315401990780245e-17]" pbc="T T T"
Fe       0.00088869      -0.00016386       0.00018196       2.30000000      -0.00000005       0.00000000       0.00000004
Fe       1.24608869       1.24503614       1.24538196       2.30000000       0.00000005      -0.00000000      -0.00000004
2
Lattice="2.4904 0.0 0.0 0.0 2.4904 0.0 0.0 0.0 2.4904" Properties=species:S:1:pos:R:3:initial_magmoms:R:1:forces:R:3 energy=-13.423383373829015 stresses="_JSON [-1.2237243354608787, -1.223727492896865, -1.2237251693125353, -1.189419384319255e-07, 1.2730683782389925e-06, 1.3843140184920895e-07]" pbc="T T T"
Fe       0.00043711      -0.00012167       0.00056997       2.30000000       0.01568265      -0.00146522      -0.01347473
Fe       1.24654027       1.24499395       1.24499396       2.30000000      -0.01568265       0.00146522       0.01347473
2
Lattice="2.4904 0.0 0.0 0.0 2.4904 0.0 0.0 0.0 2.4904" Properties=species:S:1:pos:R:3:initial_magmoms:R:1:forces:R:3 energy=-13.423392604672951 stresses="_JSON [-1.223724826522656, -1.2237256281761093, -1.223725038316393, -3.019935717791754e-08, 3.232268261822733e-07, 3.5147582697676194e-08]" pbc="T T T"
Fe       0.00066115      -0.00014260       0.00037747       2.30000000       0.00790218      -0.00073831      -0.00678968
Fe       1.24631623       1.24501488       1.24518646       2.30000000      -0.00790218       0.00073831       0.00678968
2
Lattice="2.4904 0.0 0.0 0.0 2.4904 0.0 0.0 0.0 2.4904" Properties=species:S:1:pos:R:3:initial_magmoms:R:1:forces:R:3 energy=-13.423395745869392 stresses="_JSON [-1.223724993618957, -1.2237249936189574, -1.2237249937344545, 7.187914570111464e-16, -2.0844952253323244e-16, -3.018924119446815e-16]" pbc="T T T"
Fe       0.00088869      -0.00016386       0.00018196       2.30000000      -0.00000005       0.00000000       0.00000004
Fe       1.24608869       1.24503614       1.24538196       2.30000000       0.00000005      -0.00000000      -0.00000004
2
Lattice="2.4904 0.0 0.0 0.0 2.4904 0.0 0.0 0.0 2.4904" Properties=species:S:1:pos:R:3:initial_magmoms:R:1:forces:R:3 energy=-13.42338337382902 stresses="_JSON [-1.223724335460879, -1.2237274928968664, -1.2237251693125357, -1.1894193821628807e-07, 1.2730683780808582e-06, 1.3843140208641013e-07]" pbc="T T T"
Fe       0.00043711      -0.00012167       0.00056997       2.30000000       0.01568265      -0.00146522      -0.01347473
Fe       1.24654027       1.24499395       1.24499396       2.30000000      -0.01568265       0.00146522       0.01347473
2
Lattice="2.4904 0.0 0.0 0.0 2.4904 0.0 0.0 0.0 2.4904" Properties=species:S:1:pos:R:3:initial_magmoms:R:1:forces:R:3 energy=-13.423392604672959 stresses="_JSON [-1.223724826522657, -1.2237256281761097, -1.223725038316393, -3.019935753731327e-08, 3.2322682621102496e-07, 3.5147582367032125e-08]" pbc="T T T"
Fe       0.00066115      -0.00014260       0.00037747       2.30000000       0.00790218      -0.00073831      -0.00678968
Fe       1.24631623       1.24501488       1.24518646       2.30000000      -0.00790218       0.00073831       0.00678968
2
Lattice="2.4904 0.0 0.0 0.0 2.4904 0.0 0.0 0.0 2.4904" Properties=species:S:1:pos:R:3:initial_magmoms:R:1:forces:R:3 energy=-13.423395745869385 stresses="_JSON [-1.2237249936189576, -1.2237249936189587, -1.2237249937344554, 7.116035424410349e-16, -2.2282535167345537e-16, -6.469123113100318e-17]" pbc="T T T"
Fe       0.00088869      -0.00016386       0.00018196       2.30000000      -0.00000005       0.00000000       0.00000004
Fe       1.24608869       1.24503614       1.24538196       2.30000000       0.00000005      -0.00000000      -0.00000004
2
Lattice="2.4904 0.0 0.0 0.0 2.4904 0.0 0.0 0.0 2.4904" Properties=species:S:1:pos:R:3:initial_magmoms:R:1:forces:R:3 energy=-13.423383373829019 stresses="_JSON [-1.2237243354608793, -1.2237274928968667, -1.2237251693125362, -1.1894193856849588e-07, 1.273068378440254e-06, 1.3843140213672552e-07]" pbc="T T T"
Fe       0.00043711      -0.00012167       0.00056997       2.30000000       0.01568265      -0.00146522      -0.01347473
Fe       1.24654027       1.24499395       1.24499396       2.30000000      -0.01568265       0.00146522       0.01347473
2
Lattice="2.4904 0.0 0.0 0.0 2.4904 0.0 0.0 0.0 2.4904" Properties=species:S:1:pos:R:3:initial_magmoms:R:1:forces:R:3 energy=-13.423392604672951 stresses="_JSON [-1.2237248265226572, -1.2237256281761109, -1.2237250383163945, -3.019935717791754e-08, 3.232268264266624e-07, 3.514758238140795e-08]" pbc="T T T"
Fe       0.00066115      -0.00014260       0.00037747       2.30000000       0.00790218      -0.00073831      -0.00678968
Fe       1.24631623       1.24501488       1.24518646       2.30000000      -0.00790218       0.00073831       0.00678968
2
Lattice="2.4904 0.0 0.0 0.0 2.4904 0.0 0.0 0.0 2.4904" Properties=species:S:1:pos:R:3:initial_magmoms:R:1:forces:R:3 energy=-13.423395745869387 stresses="_JSON [-1.2237249936189567, -1.2237249936189576, -1.2237249937344552, 6.469123113100318e-17, -6.181606530295859e-16, 4.672144470572452e-16]" pbc="T T T"
Fe       0.00088869      -0.00016386       0.00018196       2.30000000      -0.00000005       0.00000000       0.00000004
Fe       1.24608869       1.24503614       1.24538196       2.30000000       0.00000005      -0.00000000      -0.00000004
2
Lattice="2.4904 0.0 0.0 0.0 2.4904 0.0 0.0 0.0 2.4904" Properties=species:S:1:pos:R:3:initial_magmoms:R:1:forces:R:3 energy=-13.423383373829013 stresses="_JSON [-1.22372433546088, -1.2237274928968673, -1.2237251693125364, -1.1894193873381792e-07, 1.2730683783899386e-06, 1.3843140200734307e-07]" pbc="T T T"
Fe       0.00043711      -0.00012167       0.00056997       2.30000000       0.01568265      -0.00146522      -0.01347473
Fe       1.24654027       1.24499395       1.24499396       2.30000000      -0.01568265       0.00146522       0.01347473
2
Lattice="2.4904 0.0 0.0 0.0 2.4904 0.0 0.0 0.0 2.4904" Properties=species:S:1:pos:R:3:initial_magmoms:R:1:forces:R:3 energy=-13.423392604672953 stresses="_JSON [-1.223724826522657, -1.2237256281761106, -1.2237250383163938, -3.01993576020045e-08, 3.2322682646260195e-07, 3.514758263298496e-08]" pbc="T T T"
Fe       0.00066115      -0.00014260       0.00037747       2.30000000       0.00790218      -0.00073831      -0.00678968
Fe       1.24631623       1.24501488       1.24518646       2.30000000      -0.00790218       0.00073831       0.00678968
2
Lattice="2.4904 0.0 0.0 0.0 2.4904 0.0 0.0 0.0 2.4904" Properties=species:S:1:pos:R:3:initial_magmoms:R:1:forces:R:3 energy=-13.423395745869383 stresses="_JSON [-1.2237249936189578, -1.223724993618958, -1.2237249937344556, 7.691068590019266e-16, -7.90670602712261e-17, -3.593957285055732e-17]" pbc="T T T"
Fe       0.00088869      -0.00016386       0.00018196       2.30000000      -0.00000005       0.00000000       0.00000004
Fe       1.24608869       1.24503614       1.24538196       2.30000000       0.00000005      -0.00000000      -0.00000004
2
Lattice="2.4904 0.0 0.0 0.0 2.4904 0.0 0.0 0.0 2.4904" Properties=species:S:1:pos:R:3:initial_magmoms:R:1:forces:R:3 energy=-13.423383373829015 stresses="_JSON [-1.2237243354608787, -1.223727492896866, -1.223725169312535, -1.1894193806534186e-07, 1.2730683780449188e-06, 1.3843140211516179e-07]" pbc="T T T"
Fe       0.00043711      -0.00012167       0.00056997       2.30000000       0.01568265      -0.00146522      -0.01347473
Fe       1.24654027       1.24499395       1.24499396       2.30000000      -0.01568265       0.00146522       0.01347473
2
Lattice="2.4904 0.0 0.0 0.0 2.4904 0.0 0.0 0.0 2.4904" Properties=species:S:1:pos:R:3:initial_magmoms:R:1:forces:R:3 energy=-13.423392604672957 stresses="_JSON [-1.2237248265226568, -1.22372562817611, -1.2237250383163931, -3.019935728573626e-08, 3.232268263475953e-07, 3.514758258266956e-08]" pbc="T T T"
Fe       0.00066115      -0.00014260       0.00037747       2.30000000       0.00790218      -0.00073831      -0.00678968
Fe       1.24631623       1.24501488       1.24518646       2.30000000      -0.00790218       0.00073831       0.00678968
2
Lattice="2.4904 0.0 0.0 0.0 2.4904 0.0 0.0 0.0 2.4904" Properties=species:S:1:pos:R:3:initial_magmoms:R:1:forces:R:3 energy=-13.423395745869385 stresses="_JSON [-1.2237249936189576, -1.223724993618958, -1.2237249937344556, 7.259793715812579e-16, -1.4375829140222928e-16, -1.1500663312178343e-16]" pbc="T T T"
Fe       0.00088869      -0.00016386       0.00018196       2.30000000      -0.00000005       0.00000000       0.00000004
Fe       1.24608869       1.24503614       1.24538196       2.30000000       0.00000005      -0.00000000      -0.00000004
2
Lattice="2.4904 0.0 0.0 0.0 2.4904 0.0 0.0 0.0 2.4904" Properties=species:S:1:pos:R:3:initial_magmoms:R:1:forces:R:3 energy=-13.423383373829012 stresses="_JSON [-1.223724335460879, -1.2237274928968664, -1.2237251693125357, -1.1894193878413332e-07, 1.2730683782246166e-06, 1.384314022732959e-07]" pbc="T T T"
Fe       0.00043711      -0.00012167       0.00056997       2.30000000       0.01568265      -0.00146522      -0.01347473
Fe       1.24654027       1.24499395       1.24499396       2.30000000      -0.01568265       0.00146522       0.01347473
2
Lattice="2.4904 0.0 0.0 0.0 2.4904 0.0 0.0 0.0 2.4904" Properties=species:S:1:pos:R:3:initial_magmoms:R:1:forces:R:3 energy=-13.423392604672955 stresses="_JSON [-1.2237248265226557, -1.223725628176109, -1.2237250383163925, -3.019935730011209e-08, 3.2322682640509863e-07, 3.51475825539179e-08]" pbc="T T T"
Fe       0.00066115      -0.00014260       0.00037747       2.30000000       0.00790218      -0.00073831      -0.00678968
Fe       1.24631623       1.24501488       1.24518646       2.30000000      -0.00790218       0.00073831       0.00678968
2
Lattice="2.4904 0.0 0.0 0.0 2.4904 0.0 0.0 0.0 2.4904" Properties=species:S:1:pos:R:3:initial_magmoms:R:1:forces:R:3 energy=-13.423395745869383 stresses="_JSON [-1.2237249936189571, -1.2237249936189576, -1.2237249937344552, 6.756639695904776e-16, -2.8751658280445856e-16, -2.7314075366423563e-16]" pbc="T T T"
Fe       0.00088869      -0.00016386       0.00018196       2.30000000      -0.00000005       0.00000000       0.00000004
Fe       1.24608869       1.24503614       1.24538196       2.30000000       0.00000005      -0.00000000      -0.00000004
2
Lattice="2.4904 0.0 0.0 0.0 2.4904 0.0 0.0 0.0 2.4904" Properties=species:S:1:pos:R:3:initial_magmoms:R:1:forces:R:3 energy=-13.423383373829022 stresses="_JSON [-1.2237243354608798, -1.2237274928968664, -1.2237251693125364, -1.189419382809793e-07, 1.2730683786487036e-06, 1.3843140224454424e-07]" pbc="T T T"
Fe       0.00043711      -0.00012167       0.00056997       2.30000000       0.01568265      -0.00146522      -0.01347473
Fe       1.24654027       1.24499395       1.24499396       2.30000000      -0.01568265       0.00146522       0.01347473
2
Lattice="2.4904 0.0 0.0 0.0 2.4904 0.0 0.0 0.0 2.4904" Properties=species:S:1:pos:R:3:initial_magmoms:R:1:forces:R:3 energy=-13.42339260467295 stresses="_JSON [-1.223724826522658, -1.223725628176111, -1.2237250383163947, -3.019935727854834e-08, 3.232268263475953e-07, 3.514758261860913e-08]" pbc="T T T"
Fe       0.00066115      -0.00014260       0.00037747       2.30000000       0.00790218      -0.00073831      -0.00678968
Fe       1.24631623       1.24501488       1.24518646       2.30000000      -0.00790218       0.00073831       0.00678968
2
Lattice="2.4904 0.0 0.0 0.0 2.4904 0.0 0.0 0.0 2.4904" Properties=species:S:1:pos:R:3:initial_magmoms:R:1:forces:R:3 energy=-13.423395745869389 stresses="_JSON [-1.2237249936189567, -1.2237249936189574, -1.2237249937344543, 6.109727384594744e-16, -9.344288941144903e-17, -6.469123113100318e-17]" pbc="T T T"
Fe       0.00088869      -0.00016386       0.00018196       2.30000000      -0.00000005       0.00000000       0.00000004
Fe       1.24608869       1.24503614       1.24538196       2.30000000       0.00000005      -0.00000000      -0.00000004
2
Lattice="2.6602 0.0 0.0 0.0 2.6602 0.0 0.0 0.0 2.6602" Properties=species:S:1:pos:R:3:initial_magmoms:R:1:forces:R:3 energy=-15.900944823199909 stresses="_JSON [-0.3529899351425693, -0.3529908448287881, -0.3529901754161168, -1.4215888047494676e-07, 1.5215388490240426e-06, 1.6545183177739761e-07]" pbc="T T T"
Fe       0.00046691      -0.00012997       0.00060883       2.30000000       0.01072732      -0.00100226      -0.00921707
Fe       1.33153165       1.32987990       1.32987991       2.30000000      -0.01072732       0.00100226       0.00921707
2
Lattice="2.6602 0.0 0.0 0.0 2.6602 0.0 0.0 0.0 2.6602" Properties=species:S:1:pos:R:3:initial_magmoms:R:1:forces:R:3 energy=-15.900949654630463 stresses="_JSON [-0.35299015980242743, -0.35299058329339705, -0.3529902716946043, -6.617974866074712e-08, 7.08330381287546e-07, 7.70234824224649e-08]" pbc="T T T"
Fe       0.00062016      -0.00014429       0.00047715       2.30000000       0.00731926      -0.00068384      -0.00628882
Fe       1.33137840       1.32989421       1.33001158       2.30000000      -0.00731926       0.00068384       0.00628882
2
Lattice="2.4904 0.0 0.0 0.0 2.4904 0.0 0.0 0.0 2.4904" Properties=species:S:1:pos:R:3:initial_magmoms:R:1:forces:R:3 energy=-13.423383373829022 stresses="_JSON [-1.2237243354608796, -1.2237274928968669, -1.2237251693125362, -1.1894193858287171e-07, 1.2730683783324352e-06, 1.3843140213672552e-07]" pbc="T T T"
Fe       0.00043711      -0.00012167       0.00056997       2.30000000       0.01568265      -0.00146522      -0.01347473
Fe       1.24654027       1.24499395       1.24499396       2.30000000      -0.01568265       0.00146522       0.01347473
2
Lattice="2.4904 0.0 0.0 0.0 2.4904 0.0 0.0 0.0 2.4904" Properties=species:S:1:pos:R:3:initial_magmoms:R:1:forces:R:3 energy=-13.423392604672955 stresses="_JSON [-1.223724826522656, -1.22372562817611, -1.2237250383163933, -3.0199357379179145e-08, 3.232268261894612e-07, 3.514758256829373e-08]" pbc="T T T"
Fe       0.00066115      -0.00014260       0.00037747       2.30000000       0.00790218      -0.00073831      -0.00678968
Fe       1.24631623       1.24501488       1.24518646       2.30000000      -0.00790218       0.00073831       0.00678968
2
Lattice="2.4904 0.0 0.0 0.0 2.4904 0.0 0.0 0.0 2.4904" Properties=species:S:1:pos:R:3:initial_magmoms:R:1:forces:R:3 energy=-13.423395745869385 stresses="_JSON [-1.2237249936189567, -1.2237249936189571, -1.2237249937344548, 5.750331656089171e-16, 1.0781871855167195e-16, -7.90670602712261e-17]" pbc="T T T"
Fe       0.00088869      -0.00016386       0.00018196       2.30000000      -0.00000005       0.00000000       0.00000004
Fe       1.24608869       1.24503614       1.24538196       2.30000000       0.00000005      -0.00000000      -0.00000004
2
Lattice="2.4904 0.0 0.0 0.0 2.4904 0.0 0.0 0.0 2.4904" Properties=species:S:1:pos:R:3:initial_magmoms:R:1:forces:R:3 energy=-13.423383373829019 stresses="_JSON [-1.2237243354608796, -1.2237274928968664, -1.2237251693125362, -1.1894193859005964e-07, 1.2730683782030529e-06, 1.3843140215110137e-07]" pbc="T T T"
Fe       0.00043711      -0.00012167       0.00056997       2.30000000       0.01568265      -0.00146522      -0.01347473
Fe       1.24654027       1.24499395       1.24499396       2.30000000      -0.01568265       0.00146522       0.01347473
2
Lattice="2.4904 0.0 0.0 0.0 2.4904 0.0 0.0 0.0 2.4904" Properties=species:S:1:pos:R:3:initial_magmoms:R:1:forces:R:3 energy=-13.423392604672955 stresses="_JSON [-1.2237248265226568, -1.2237256281761095, -1.223725038316393, -3.019935740074289e-08, 3.232268264769778e-07, 3.514758276236742e-08]" pbc="T T T"
Fe       0.00066115      -0.00014260       0.00037747       2.30000000       0.00790218      -0.00073831      -0.00678968
Fe       1.24631623       1.24501488       1.24518646       2.30000000      -0.00790218       0.00073831       0.00678968
2
Lattice="2.4904 0.0 0.0 0.0 2.4904 0.0 0.0 0.0 2.4904" Properties=species:S:1:pos:R:3:initial_magmoms:R:1:forces:R:3 energy=-13.423395745869385 stresses="_JSON [-1.2237249936189591, -1.2237249936189598, -1.223724993734457, 8.194222609927069e-16, 8.625497484133757e-17, -1.0781871855167195e-16]" pbc="T T T"
Fe       0.00088869      -0.00016386       0.00018196       2.30000000      -0.00000005       0.00000000       0.00000004
Fe       1.24608869       1.24503614       1.24538196       2.30000000       0.00000005      -0.00000000      -0.00000004
2
Lattice="2.6602 0.0 0.0 0.0 2.6602 0.0 0.0 0.0 2.6602" Properties=species:S:1:pos:R:3:initial_magmoms:R:1:forces:R:3 energy=-15.900944823199907 stresses="_JSON [-0.3529899351425693, -0.3529908448287881, -0.35299017541611694, -1.4215888102783664e-07, 1.5215388492628908e-06, 1.654518319307324e-07]" pbc="T T T"
Fe       0.00046691      -0.00012997       0.00060883       2.30000000       0.01072732      -0.00100226      -0.00921707
Fe       1.33153165       1.32987990       1.32987991       2.30000000      -0.01072732       0.00100226       0.00921707
2
Lattice="2.6602 0.0 0.0 0.0 2.6602 0.0 0.0 0.0 2.6602" Properties=species:S:1:pos:R:3:initial_magmoms:R:1:forces:R:3 energy=-15.900949654630466 stresses="_JSON [-0.352990159802428, -0.3529905832933971, -0.3529902716946047, -6.617974894382674e-08, 7.083303811813912e-07, 7.702348221310394e-08]" pbc="T T T"
Fe       0.00062016      -0.00014429       0.00047715       2.30000000       0.00731926      -0.00068384      -0.00628882
Fe       1.33137840       1.32989421       1.33001158       2.30000000      -0.00731926       0.00068384       0.00628882
2
Lattice="2.6602 0.0 0.0 0.0 2.6602 0.0 0.0 0.0 2.6602" Properties=species:S:1:pos:R:3:initial_magmoms:R:1:forces:R:3 energy=-15.900944823199914 stresses="_JSON [-0.3529899351425689, -0.3529908448287882, -0.3529901754161159, -1.4215888103373413e-07, 1.5215388489488495e-06, 1.6545183155624165e-07]" pbc="T T T"
Fe       0.00046691      -0.00012997       0.00060883       2.30000000       0.01072732      -0.00100226      -0.00921707
Fe       1.33153165       1.32987990       1.32987991       2.30000000      -0.01072732       0.00100226       0.00921707
2
Lattice="2.6602 0.0 0.0 0.0 2.6602 0.0 0.0 0.0 2.6602" Properties=species:S:1:pos:R:3:initial_magmoms:R:1:forces:R:3 energy=-15.900949654630468 stresses="_JSON [-0.3529901598024273, -0.35299058329339705, -0.35299027169460456, -6.617974889369806e-08, 7.083303812256224e-07, 7.702348226028387e-08]" pbc="T T T"
Fe       0.00062016      -0.00014429       0.00047715       2.30000000       0.00731926      -0.00068384      -0.00628882
Fe       1.33137840       1.32989421       1.33001158       2.30000000      -0.00731926       0.00068384       0.00628882
2
Lattice="2.79604 0.0 0.0 0.0 2.79604 0.0 0.0 0.0 2.79604" Properties=species:S:1:pos:R:3:initial_magmoms:R:1:forces:R:3 energy=-16.45924717323825 stresses="_JSON [-0.04275645716262706, -0.04275645716262714, -0.04275645718442217, 1.2189652673008588e-16, 1.349115204694961e-16, 1.1173848283591205e-16]" pbc="T T T"
Fe       0.00000000       0.00000000       0.00000000       2.30000000       0.00000000       0.00000000       0.00000000
Fe       1.39802000       1.39802000       1.39802000       2.30000000      -0.00000000      -0.00000000      -0.00000000
2
Lattice="2.79604 0.0 0.0 0.0 2.79604 0.0 0.0 0.0 2.79604" Properties=species:S:1:pos:R:3:initial_magmoms:R:1:forces:R:3 energy=-16.459247173238246 stresses="_JSON [-0.04275645716262716, -0.04275645716262705, -0.042756457184421885, 1.2189652673008588e-16, 9.491422263618667e-17, 1.3459408159780317e-16]" pbc="T T T"
Fe       0.00000000       0.00000000       0.00000000       2.30000000       0.00000000       0.00000000       0.00000000
Fe       1.39802000       1.39802000       1.39802000       2.30000000      -0.00000000      -0.00000000      -0.00000000
2
Lattice="2.79604 0.0 0.0 0.0 2.79604 0.0 0.0 0.0 2.79604" Properties=species:S:1:pos:R:3:initial_magmoms:R:1:forces:R:3 energy=-16.459247173238246 stresses="_JSON [-0.04275645716262719, -0.04275645716262698, -0.04275645718442207, 1.0665946088882515e-16, 1.0253275555681703e-16, 1.0983384960575447e-16]" pbc="T T T"
Fe       0.00000000       0.00000000       0.00000000       2.30000000       0.00000000       0.00000000       0.00000000
Fe       1.39802000       1.39802000       1.39802000       2.30000000      -0.00000000      -0.00000000      -0.00000000
