2
Lattice="2.84132 0.0 0.0 0.0 2.84132 0.0 0.0 0.0 2.84132" Properties=species:S:1:pos:R:3:initial_magmoms:R:1:forces:R:3 energy=-16.472323919926957 stresses="_JSON [0.014148306688761835, 0.014148306688761825, 0.014148306672241694, 1.2100123235656422e-17, 9.982601669416549e-18, 6.050061617828211e-19]" pbc="T T T"
Fe       0.00000000       0.00000000       0.00000000       2.30000000       0.00000000       0.00000000      -0.00000000
Fe       1.42066000       1.42066000       1.42066000       2.30000000      -0.00000000      -0.00000000       0.00000000
