2
Lattice="2.9432 0.0 0.0 0.0 2.9432 0.0 0.0 0.0 2.9432" Properties=species:S:1:pos:R:3:initial_magmoms:R:1:forces:R:3 energy=-16.331362665412996 stresses="_JSON [0.08769739555310008, 0.08769681635359827, 0.08769724260059951, 2.1485977108305656e-09, -2.299751973258977e-08, -2.500674324720395e-09]" pbc="T T T"
Fe       0.00051658      -0.00014379       0.00067360       2.30000000       0.00673032      -0.00062882      -0.00578280
Fe       1.47318395       1.47135648       1.47135650       2.30000000      -0.00673032       0.00062882       0.00578280
2
Lattice="2.9432 0.0 0.0 0.0 2.9432 0.0 0.0 0.0 2.9432" Properties=species:S:1:pos:R:3:initial_magmoms:R:1:forces:R:3 energy=-16.331362665412996 stresses="_JSON [0.08769739555310001, 0.08769681635359836, 0.0876972426005996, 2.14859772226146e-09, -2.2997519726057833e-08, -2.5006743350626327e-09]" pbc="T T T"
Fe       0.00051658      -0.00014379       0.00067360       2.30000000       0.00673032      -0.00062882      -0.00578280
Fe       1.47318395       1.47135648       1.47135650       2.30000000      -0.00673032       0.00062882       0.00578280
2
Lattice="2.9432 0.0 0.0 0.0 2.9432 0.0 0.0 0.0 2.9432" Properties=species:S:1:pos:R:3:initial_magmoms:R:1:forces:R:3 energy=-16.331362665412996 stresses="_JSON [0.08769739555310009, 0.0876968163535982, 0.08769724260059945, 2.148597702121313e-09, -2.2997519719525892e-08, -2.500674337239946e-09]" pbc="T T T"
Fe       0.00051658      -0.00014379       0.00067360       2.30000000       0.00673032      -0.00062882      -0.00578280
Fe       1.47318395       1.47135648       1.47135650       2.30000000      -0.00673032       0.00062882       0.00578280
2
Lattice="2.9432 0.0 0.0 0.0 2.9432 0.0 0.0 0.0 2.9432" Properties=species:S:1:pos:R:3:initial_magmoms:R:1:forces:R:3 energy=-16.33136266541299 stresses="_JSON [0.08769739555309997, 0.08769681635359827, 0.0876972426005994, 2.1485977108305656e-09, -2.2997519715171266e-08, -2.500674310567859e-09]" pbc="T T T"
Fe       0.00051658      -0.00014379       0.00067360       2.30000000       0.00673032      -0.00062882      -0.00578280
Fe       1.47318395       1.47135648       1.47135650       2.30000000      -0.00673032       0.00062882       0.00578280
2
Lattice="2.9432 0.0 0.0 0.0 2.9432 0.0 0.0 0.0 2.9432" Properties=species:S:1:pos:R:3:initial_magmoms:R:1:forces:R:3 energy=-16.331362665412996 stresses="_JSON [0.08769739555309997, 0.08769681635359816, 0.08769724260059937, 2.1485977140965356e-09, -2.2997519721703207e-08, -2.5006743448605423e-09]" pbc="T T T"
Fe       0.00051658      -0.00014379       0.00067360       2.30000000       0.00673032      -0.00062882      -0.00578280
Fe       1.47318395       1.47135648       1.47135650       2.30000000      -0.00673032       0.00062882       0.00578280
2
Lattice="2.9432 0.0 0.0 0.0 2.9432 0.0 0.0 0.0 2.9432" Properties=species:S:1:pos:R:3:initial_magmoms:R:1:forces:R:3 energy=-16.331362665412996 stresses="_JSON [0.08769739555310008, 0.0876968163535983, 0.08769724260059958, 2.1485977173625052e-09, -2.2997519723880518e-08, -2.500674342683229e-09]" pbc="T T T"
Fe       0.00051658      -0.00014379       0.00067360       2.30000000       0.00673032      -0.00062882      -0.00578280
Fe       1.47318395       1.47135648       1.47135650       2.30000000      -0.00673032       0.00062882       0.00578280
2
Lattice="2.9432 0.0 0.0 0.0 2.9432 0.0 0.0 0.0 2.9432" Properties=species:S:1:pos:R:3:initial_magmoms:R:1:forces:R:3 energy=-16.331362665412996 stresses="_JSON [0.08769739555310009, 0.08769681635359834, 0.08769724260059931, 2.1485976928677314e-09, -2.2997519728235144e-08, -2.500674319277112e-09]" pbc="T T T"
Fe       0.00051658      -0.00014379       0.00067360       2.30000000       0.00673032      -0.00062882      -0.00578280
Fe       1.47318395       1.47135648       1.47135650       2.30000000      -0.00673032       0.00062882       0.00578280
2
Lattice="2.9432 0.0 0.0 0.0 2.9432 0.0 0.0 0.0 2.9432" Properties=species:S:1:pos:R:3:initial_magmoms:R:1:forces:R:3 energy=-16.331362665412993 stresses="_JSON [0.08769739555310006, 0.08769681635359822, 0.08769724260059955, 2.1485977053872825e-09, -2.299751973912171e-08, -2.5006743198214403e-09]" pbc="T T T"
Fe       0.00051658      -0.00014379       0.00067360       2.30000000       0.00673032      -0.00062882      -0.00578280
Fe       1.47318395       1.47135648       1.47135650       2.30000000      -0.00673032       0.00062882       0.00578280
2
Lattice="2.9432 0.0 0.0 0.0 2.9432 0.0 0.0 0.0 2.9432" Properties=species:S:1:pos:R:3:initial_magmoms:R:1:forces:R:3 energy=-16.331362665412993 stresses="_JSON [0.08769739555310009, 0.08769681635359827, 0.08769724260059934, 2.148597724438773e-09, -2.2997519747830964e-08, -2.5006743274420365e-09]" pbc="T T T"
Fe       0.00051658      -0.00014379       0.00067360       2.30000000       0.00673032      -0.00062882      -0.00578280
Fe       1.47318395       1.47135648       1.47135650       2.30000000      -0.00673032       0.00062882       0.00578280
2
Lattice="2.9432 0.0 0.0 0.0 2.9432 0.0 0.0 0.0 2.9432" Properties=species:S:1:pos:R:3:initial_magmoms:R:1:forces:R:3 energy=-16.331362665412996 stresses="_JSON [0.08769739555310027, 0.08769681635359841, 0.0876972426005994, 2.1485976885131053e-09, -2.299751973041246e-08, -2.5006743470378554e-09]" pbc="T T T"
Fe       0.00051658      -0.00014379       0.00067360       2.30000000       0.00673032      -0.00062882      -0.00578280
Fe       1.47318395       1.47135648       1.47135650       2.30000000      -0.00673032       0.00062882       0.00578280
2
Lattice="2.8866 0.0 0.0 0.0 2.8866 0.0 0.0 0.0 2.8866" Properties=species:S:1:pos:R:3:initial_magmoms:R:1:forces:R:3 energy=-16.433857715910165 stresses="_JSON [0.052512090461313, 0.05251136332417559, 0.052511898443008555, 3.584573111707408e-10, -3.836974431580664e-09, -4.1720187249826347e-10]" pbc="T T T"
Fe       0.00050665      -0.00014103       0.00066064       2.30000000       0.00822576      -0.00076854      -0.00706770
Fe       1.44485349       1.44306116       1.44306118       2.30000000      -0.00822576       0.00076854       0.00706770
2
Lattice="2.8866 0.0 0.0 0.0 2.8866 0.0 0.0 0.0 2.8866" Properties=species:S:1:pos:R:3:initial_magmoms:R:1:forces:R:3 energy=-16.433860714118964 stresses="_JSON [0.05251230206503616, 0.05251186476897326, 0.05251218658071482, 2.15535663851242e-10, -2.307038432486665e-09, -2.5085548145459114e-10]" pbc="T T T"
Fe       0.00062416      -0.00015201       0.00055968       2.30000000       0.00637905      -0.00059600      -0.00548098
Fe       1.44473598       1.44307214       1.44316215       2.30000000      -0.00637905       0.00059600       0.00548098
2
Lattice="2.9432 0.0 0.0 0.0 2.9432 0.0 0.0 0.0 2.9432" Properties=species:S:1:pos:R:3:initial_magmoms:R:1:forces:R:3 energy=-16.331362665412996 stresses="_JSON [0.0876973955531002, 0.08769681635359824, 0.08769724260059954, 2.1485977037542977e-09, -2.2997519756540216e-08, -2.5006743078462175e-09]" pbc="T T T"
Fe       0.00051658      -0.00014379       0.00067360       2.30000000       0.00673032      -0.00062882      -0.00578280
Fe       1.47318395       1.47135648       1.47135650       2.30000000      -0.00673032       0.00062882       0.00578280
2
Lattice="2.9432 0.0 0.0 0.0 2.9432 0.0 0.0 0.0 2.9432" Properties=species:S:1:pos:R:3:initial_magmoms:R:1:forces:R:3 energy=-16.331362665412993 stresses="_JSON [0.08769739555310017, 0.08769681635359837, 0.08769724260059968, 2.148597689601762e-09, -2.2997519723880518e-08, -2.5006743029472627e-09]" pbc="T T T"
Fe       0.00051658      -0.00014379       0.00067360       2.30000000       0.00673032      -0.00062882      -0.00578280
Fe       1.47318395       1.47135648       1.47135650       2.30000000      -0.00673032       0.00062882       0.00578280
2
Lattice="2.8866 0.0 0.0 0.0 2.8866 0.0 0.0 0.0 2.8866" Properties=species:S:1:pos:R:3:initial_magmoms:R:1:forces:R:3 energy=-16.43385771591016 stresses="_JSON [0.05251209046131287, 0.05251136332417558, 0.05251189844300852, 3.584572811678042e-10, -3.836974408501482e-09, -4.1720187249826347e-10]" pbc="T T T"
Fe       0.00050665      -0.00014103       0.00066064       2.30000000       0.00822576      -0.00076854      -0.00706770
Fe       1.44485349       1.44306116       1.44306118       2.30000000      -0.00822576       0.00076854       0.00706770
2
Lattice="2.8866 0.0 0.0 0.0 2.8866 0.0 0.0 0.0 2.8866" Properties=species:S:1:pos:R:3:initial_magmoms:R:1:forces:R:3 energy=-16.433860714118957 stresses="_JSON [0.05251230206503613, 0.05251186476897317, 0.052512186580714756, 2.1553567481385345e-10, -2.3070384405643787e-09, -2.508554981869981e-10]" pbc="T T T"
Fe       0.00062416      -0.00015201       0.00055968       2.30000000       0.00637905      -0.00059600      -0.00548098
Fe       1.44473598       1.44307214       1.44316215       2.30000000      -0.00637905       0.00059600       0.00548098
2
Lattice="2.8866 0.0 0.0 0.0 2.8866 0.0 0.0 0.0 2.8866" Properties=species:S:1:pos:R:3:initial_magmoms:R:1:forces:R:3 energy=-16.433857715910165 stresses="_JSON [0.05251209046131277, 0.052511363324175386, 0.05251189844300827, 3.584572880915588e-10, -3.836974417733155e-09, -4.172018609586725e-10]" pbc="T T T"
Fe       0.00050665      -0.00014103       0.00066064       2.30000000       0.00822576      -0.00076854      -0.00706770
Fe       1.44485349       1.44306116       1.44306118       2.30000000      -0.00822576       0.00076854       0.00706770
2
Lattice="2.8866 0.0 0.0 0.0 2.8866 0.0 0.0 0.0 2.8866" Properties=species:S:1:pos:R:3:initial_magmoms:R:1:forces:R:3 energy=-16.43386071411896 stresses="_JSON [0.05251230206503613, 0.05251186476897328, 0.052512186580714694, 2.1553568750740356e-10, -2.307038397867892e-09, -2.5085549876397763e-10]" pbc="T T T"
Fe       0.00062416      -0.00015201       0.00055968       2.30000000       0.00637905      -0.00059600      -0.00548098
Fe       1.44473598       1.44307214       1.44316215       2.30000000      -0.00637905       0.00059600       0.00548098
2
Lattice="2.84132 0.0 0.0 0.0 2.84132 0.0 0.0 0.0 2.84132" Properties=species:S:1:pos:R:3:initial_magmoms:R:1:forces:R:3 energy=-16.472323919926964 stresses="_JSON [0.014148306688761606, 0.014148306688761755, 0.014148306672241488, 1.4520147882787708e-17, -8.470086264959496e-18, -1.8150184853484635e-18]" pbc="T T T"
Fe       0.00000000       0.00000000       0.00000000       2.30000000      -0.00000000       0.00000000      -0.00000000
Fe       1.42066000       1.42066000       1.42066000       2.30000000      -0.00000000       0.00000000       0.00000000
2
Lattice="2.84132 0.0 0.0 0.0 2.84132 0.0 0.0 0.0 2.84132" Properties=species:S:1:pos:R:3:initial_magmoms:R:1:forces:R:3 energy=-16.472323919926957 stresses="_JSON [0.014148306688761582, 0.014148306688761611, 0.014148306672241522, -1.9360197177050274e-17, -6.050061617828211e-19, 1.8150184853484635e-18]" pbc="T T T"
Fe       0.00000000       0.00000000       0.00000000       2.30000000      -0.00000000      -0.00000000      -0.00000000
Fe       1.42066000       1.42066000       1.42066000       2.30000000       0.00000000       0.00000000       0.00000000
2
Lattice="2.84132 0.0 0.0 0.0 2.84132 0.0 0.0 0.0 2.84132" Properties=species:S:1:pos:R:3:initial_magmoms:R:1:forces:R:3 energy=-16.472323919926957 stresses="_JSON [0.014148306688761835, 0.014148306688761825, 0.014148306672241694, 1.2100123235656422e-17, 9.982601669416549e-18, 6.050061617828211e-19]" pbc="T T T"
Fe       0.00000000       0.00000000       0.00000000       2.30000000       0.00000000       0.00000000      -0.00000000
Fe       1.42066000       1.42066000       1.42066000       2.30000000      -0.00000000      -0.00000000       0.00000000
